 Entering Gaussian System, Link 0=g16
 Input=da_meta_endo_b3lyp_d3bj_midix_freeze.gjf
 Output=da_meta_endo_b3lyp_d3bj_midix_freeze.out
 Initial command:
 /n/sw/g16_nehalem/g16/l1.exe "/scratch/dhuang9_da_meta_endo_b3lyp_d3bj_midix_freeze/Gau-52562.inp" -scrdir="/scratch/dhuang9_da_meta_endo_b3lyp_d3bj_midix_freeze/"
 Entering Link 1 = /n/sw/g16_nehalem/g16/l1.exe PID=     52563.
  
 Copyright (c) 1988,1990,1992,1993,1995,1998,2003,2009,2016,
            Gaussian, Inc.  All Rights Reserved.
  
 This is part of the Gaussian(R) 16 program.  It is based on
 the Gaussian(R) 09 system (copyright 2009, Gaussian, Inc.),
 the Gaussian(R) 03 system (copyright 2003, Gaussian, Inc.),
 the Gaussian(R) 98 system (copyright 1998, Gaussian, Inc.),
 the Gaussian(R) 94 system (copyright 1995, Gaussian, Inc.),
 the Gaussian 92(TM) system (copyright 1992, Gaussian, Inc.),
 the Gaussian 90(TM) system (copyright 1990, Gaussian, Inc.),
 the Gaussian 88(TM) system (copyright 1988, Gaussian, Inc.),
 the Gaussian 86(TM) system (copyright 1986, Carnegie Mellon
 University), and the Gaussian 82(TM) system (copyright 1983,
 Carnegie Mellon University). Gaussian is a federally registered
 trademark of Gaussian, Inc.
  
 This software contains proprietary and confidential information,
 including trade secrets, belonging to Gaussian, Inc.
  
 This software is provided under written license and may be
 used, copied, transmitted, or stored only in accord with that
 written license.
  
 The following legend is applicable only to US Government
 contracts under FAR:
  
                    RESTRICTED RIGHTS LEGEND
  
 Use, reproduction and disclosure by the US Government is
 subject to restrictions as set forth in subparagraphs (a)
 and (c) of the Commercial Computer Software - Restricted
 Rights clause in FAR 52.227-19.
  
 Gaussian, Inc.
 340 Quinnipiac St., Bldg. 40, Wallingford CT 06492
  
  
 ---------------------------------------------------------------
 Warning -- This program may not be used in any manner that
 competes with the business of Gaussian, Inc. or will provide
 assistance to any competitor of Gaussian, Inc.  The licensee
 of this program is prohibited from giving any competitor of
 Gaussian, Inc. access to this program.  By using this program,
 the user acknowledges that Gaussian, Inc. is engaged in the
 business of creating and licensing software in the field of
 computational chemistry and represents and warrants to the
 licensee that it is not a competitor of Gaussian, Inc. and that
 it will not use this program in any manner prohibited above.
 ---------------------------------------------------------------
  

 Cite this work as:
 Gaussian 16, Revision A.03,
 M. J. Frisch, G. W. Trucks, H. B. Schlegel, G. E. Scuseria, 
 M. A. Robb, J. R. Cheeseman, G. Scalmani, V. Barone, 
 G. A. Petersson, H. Nakatsuji, X. Li, M. Caricato, A. V. Marenich, 
 J. Bloino, B. G. Janesko, R. Gomperts, B. Mennucci, H. P. Hratchian, 
 J. V. Ortiz, A. F. Izmaylov, J. L. Sonnenberg, D. Williams-Young, 
 F. Ding, F. Lipparini, F. Egidi, J. Goings, B. Peng, A. Petrone, 
 T. Henderson, D. Ranasinghe, V. G. Zakrzewski, J. Gao, N. Rega, 
 G. Zheng, W. Liang, M. Hada, M. Ehara, K. Toyota, R. Fukuda, 
 J. Hasegawa, M. Ishida, T. Nakajima, Y. Honda, O. Kitao, H. Nakai, 
 T. Vreven, K. Throssell, J. A. Montgomery, Jr., J. E. Peralta, 
 F. Ogliaro, M. J. Bearpark, J. J. Heyd, E. N. Brothers, K. N. Kudin, 
 V. N. Staroverov, T. A. Keith, R. Kobayashi, J. Normand, 
 K. Raghavachari, A. P. Rendell, J. C. Burant, S. S. Iyengar, 
 J. Tomasi, M. Cossi, J. M. Millam, M. Klene, C. Adamo, R. Cammi, 
 J. W. Ochterski, R. L. Martin, K. Morokuma, O. Farkas, 
 J. B. Foresman, and D. J. Fox, Gaussian, Inc., Wallingford CT, 2016.
 
 ******************************************
 Gaussian 16:  ES64L-G16RevA.03 25-Dec-2016
                13-Nov-2017 
 ******************************************
 %nprocshared=4
 Will use up to    4 processors via shared memory.
 %mem=3GB
 ----------------------------------------------------------------------
 #p b3lyp empiricaldispersion=gd3bj midix scrf=(pcm,solvent=1,4-dioxane
 ) opt=modredundant freq=noraman
 ----------------------------------------------------------------------
 1/18=120,19=15,26=3,38=1/1,3;
 2/9=110,12=2,17=6,18=5,40=1/2;
 3/5=20,11=2,25=1,30=1,70=2201,71=1,72=31,74=-5,124=41/1,2,3;
 4//1;
 5/5=2,38=5,53=31/2;
 6/7=2,8=2,9=2,10=2,28=1/1;
 7//1,2,3,16;
 1/18=20,19=15,26=3/3(2);
 2/9=110/2;
 99//99;
 2/9=110/2;
 3/5=20,11=2,25=1,30=1,70=2205,71=1,72=31,74=-5,124=41/1,2,3;
 4/5=5,16=3,69=1/1;
 5/5=2,38=5,53=31/2;
 7//1,2,3,16;
 1/18=20,19=15,26=3/3(-5);
 2/9=110/2;
 6/7=2,8=2,9=2,10=2,19=2,28=1/1;
 99/9=1/99;
 Leave Link    1 at Mon Nov 13 15:35:44 2017, MaxMem=   402653184 cpu:               0.8 elap:               0.4
 (Enter /n/sw/g16_nehalem/g16/l101.exe)
 -----------
 Diels Alder
 -----------
 Symbolic Z-matrix:
 Charge =  0 Multiplicity = 1
 C                    -5.77356   2.10935  -1.51666 
 H                    -5.51952   3.09048  -1.85982 
 C                    -4.84799   1.34612  -0.8863 
 H                    -5.10203   0.365    -0.54314 
 C                    -3.42568   1.89277  -0.66311 
 H                    -2.69489   1.29016  -0.16541 
 C                    -3.09644   3.13443  -1.0949 
 H                    -3.82294   3.7417   -1.59323 
 H                    -2.1066    3.50881  -0.93695 
 N                    -7.13122   1.58755  -1.72971 
 H                    -7.0856    0.7555   -2.28253 
 C                    -7.93988   2.59662  -2.42882 
 O                    -9.11096   2.32387  -2.79998 
 O                    -7.3939    3.89262  -2.68802 
 H                    -8.07692   4.4614   -3.05075 
 C                    -4.03509   2.78455  -3.63891 
 H                    -4.47504   1.90158  -3.22454 
 H                    -4.53818   3.31451  -4.42054 
 C                    -2.84287   3.23396  -3.17716 
 H                    -2.40292   4.11694  -3.59153 
 C                    -2.1188    2.47122  -2.0522 
 O                    -3.04303   1.3553   -1.7843 
 H                    -2.82022   0.67674  -1.07621 
 O                    -1.01148   2.88283  -1.6186 
 
 The following ModRedundant input section has been read:
 B       7      19 F                                                           
 
 ITRead=  0  0  0  0  0  0  0  0  0  0  0  0  0  0  0  0  0  0  0  0
 ITRead=  0  0  0  0
 MicOpt= -1 -1 -1 -1 -1 -1 -1 -1 -1 -1 -1 -1 -1 -1 -1 -1 -1 -1 -1 -1
 MicOpt= -1 -1 -1 -1
 NAtoms=     24 NQM=       24 NQMF=       0 NMMI=      0 NMMIF=      0
                NMic=       0 NMicF=      0.
                    Isotopes and Nuclear Properties:
 (Nuclear quadrupole moments (NQMom) in fm**2, nuclear magnetic moments (NMagM)
  in nuclear magnetons)

  Atom         1           2           3           4           5           6           7           8           9          10
 IAtWgt=          12           1          12           1          12           1          12           1           1          14
 AtmWgt=  12.0000000   1.0078250  12.0000000   1.0078250  12.0000000   1.0078250  12.0000000   1.0078250   1.0078250  14.0030740
 NucSpn=           0           1           0           1           0           1           0           1           1           2
 AtZEff=   0.0000000   0.0000000   0.0000000   0.0000000   0.0000000   0.0000000   0.0000000   0.0000000   0.0000000   0.0000000
 NQMom=    0.0000000   0.0000000   0.0000000   0.0000000   0.0000000   0.0000000   0.0000000   0.0000000   0.0000000   2.0440000
 NMagM=    0.0000000   2.7928460   0.0000000   2.7928460   0.0000000   2.7928460   0.0000000   2.7928460   2.7928460   0.4037610
 AtZNuc=   6.0000000   1.0000000   6.0000000   1.0000000   6.0000000   1.0000000   6.0000000   1.0000000   1.0000000   7.0000000

  Atom        11          12          13          14          15          16          17          18          19          20
 IAtWgt=           1          12          16          16           1          12           1           1          12           1
 AtmWgt=   1.0078250  12.0000000  15.9949146  15.9949146   1.0078250  12.0000000   1.0078250   1.0078250  12.0000000   1.0078250
 NucSpn=           1           0           0           0           1           0           1           1           0           1
 AtZEff=   0.0000000   0.0000000   0.0000000   0.0000000   0.0000000   0.0000000   0.0000000   0.0000000   0.0000000   0.0000000
 NQMom=    0.0000000   0.0000000   0.0000000   0.0000000   0.0000000   0.0000000   0.0000000   0.0000000   0.0000000   0.0000000
 NMagM=    2.7928460   0.0000000   0.0000000   0.0000000   2.7928460   0.0000000   2.7928460   2.7928460   0.0000000   2.7928460
 AtZNuc=   1.0000000   6.0000000   8.0000000   8.0000000   1.0000000   6.0000000   1.0000000   1.0000000   6.0000000   1.0000000

  Atom        21          22          23          24
 IAtWgt=          12          16           1          16
 AtmWgt=  12.0000000  15.9949146   1.0078250  15.9949146
 NucSpn=           0           0           1           0
 AtZEff=   0.0000000   0.0000000   0.0000000   0.0000000
 NQMom=    0.0000000   0.0000000   0.0000000   0.0000000
 NMagM=    0.0000000   0.0000000   2.7928460   0.0000000
 AtZNuc=   6.0000000   8.0000000   1.0000000   8.0000000
 Leave Link  101 at Mon Nov 13 15:35:45 2017, MaxMem=   402653184 cpu:               2.7 elap:               1.4
 (Enter /n/sw/g16_nehalem/g16/l103.exe)

 GradGradGradGradGradGradGradGradGradGradGradGradGradGradGradGradGradGrad
 Berny optimization.
 Initialization pass.
                           ----------------------------
                           !    Initial Parameters    !
                           ! (Angstroms and Degrees)  !
 --------------------------                            --------------------------
 ! Name  Definition              Value          Derivative Info.                !
 --------------------------------------------------------------------------------
 ! R1    R(1,2)                  1.07           estimate D2E/DX2                !
 ! R2    R(1,3)                  1.3552         estimate D2E/DX2                !
 ! R3    R(1,10)                 1.47           estimate D2E/DX2                !
 ! R4    R(3,4)                  1.07           estimate D2E/DX2                !
 ! R5    R(3,5)                  1.54           estimate D2E/DX2                !
 ! R6    R(5,6)                  1.07           estimate D2E/DX2                !
 ! R7    R(5,7)                  1.3552         estimate D2E/DX2                !
 ! R8    R(5,22)                 1.3009         estimate D2E/DX2                !
 ! R9    R(7,8)                  1.07           estimate D2E/DX2                !
 ! R10   R(7,9)                  1.07           estimate D2E/DX2                !
 ! R11   R(7,19)                 2.1            Frozen                          !
 ! R12   R(7,21)                 1.5205         estimate D2E/DX2                !
 ! R13   R(10,11)                1.0            estimate D2E/DX2                !
 ! R14   R(10,12)                1.47           estimate D2E/DX2                !
 ! R15   R(12,13)                1.2584         estimate D2E/DX2                !
 ! R16   R(12,14)                1.43           estimate D2E/DX2                !
 ! R17   R(14,15)                0.96           estimate D2E/DX2                !
 ! R18   R(16,17)                1.07           estimate D2E/DX2                !
 ! R19   R(16,18)                1.07           estimate D2E/DX2                !
 ! R20   R(16,19)                1.3552         estimate D2E/DX2                !
 ! R21   R(19,20)                1.07           estimate D2E/DX2                !
 ! R22   R(19,21)                1.54           estimate D2E/DX2                !
 ! R23   R(21,22)                1.4735         estimate D2E/DX2                !
 ! R24   R(21,24)                1.2584         estimate D2E/DX2                !
 ! R25   R(22,23)                1.0057         estimate D2E/DX2                !
 ! A1    A(2,1,3)              120.2269         estimate D2E/DX2                !
 ! A2    A(2,1,10)             119.8865         estimate D2E/DX2                !
 ! A3    A(3,1,10)             119.8865         estimate D2E/DX2                !
 ! A4    A(1,3,4)              120.2269         estimate D2E/DX2                !
 ! A5    A(1,3,5)              119.8865         estimate D2E/DX2                !
 ! A6    A(4,3,5)              119.8865         estimate D2E/DX2                !
 ! A7    A(3,5,6)              119.8865         estimate D2E/DX2                !
 ! A8    A(3,5,7)              120.2269         estimate D2E/DX2                !
 ! A9    A(3,5,22)              90.0056         estimate D2E/DX2                !
 ! A10   A(6,5,7)              119.8865         estimate D2E/DX2                !
 ! A11   A(6,5,22)              88.1269         estimate D2E/DX2                !
 ! A12   A(7,5,22)              91.8611         estimate D2E/DX2                !
 ! A13   A(5,7,8)              120.2269         estimate D2E/DX2                !
 ! A14   A(5,7,9)              119.8865         estimate D2E/DX2                !
 ! A15   A(5,7,21)              87.5452         estimate D2E/DX2                !
 ! A16   A(8,7,9)              119.8865         estimate D2E/DX2                !
 ! A17   A(8,7,21)             113.0093         estimate D2E/DX2                !
 ! A18   A(9,7,21)              69.5587         estimate D2E/DX2                !
 ! A19   A(1,10,11)            109.4712         estimate D2E/DX2                !
 ! A20   A(1,10,12)            109.4712         estimate D2E/DX2                !
 ! A21   A(11,10,12)           109.4713         estimate D2E/DX2                !
 ! A22   A(10,12,13)           120.2269         estimate D2E/DX2                !
 ! A23   A(10,12,14)           119.8865         estimate D2E/DX2                !
 ! A24   A(13,12,14)           119.8865         estimate D2E/DX2                !
 ! A25   A(12,14,15)           109.5            estimate D2E/DX2                !
 ! A26   A(17,16,18)           119.8865         estimate D2E/DX2                !
 ! A27   A(17,16,19)           120.2269         estimate D2E/DX2                !
 ! A28   A(18,16,19)           119.8865         estimate D2E/DX2                !
 ! A29   A(16,19,20)           120.2269         estimate D2E/DX2                !
 ! A30   A(16,19,21)           119.8865         estimate D2E/DX2                !
 ! A31   A(20,19,21)           119.8865         estimate D2E/DX2                !
 ! A32   A(7,21,19)             86.6501         estimate D2E/DX2                !
 ! A33   A(7,21,22)             79.1973         estimate D2E/DX2                !
 ! A34   A(7,21,24)            101.898          estimate D2E/DX2                !
 ! A35   A(19,21,22)           102.2973         estimate D2E/DX2                !
 ! A36   A(19,21,24)           120.2269         estimate D2E/DX2                !
 ! A37   A(22,21,24)           137.4758         estimate D2E/DX2                !
 ! A38   A(5,22,21)             91.6215         estimate D2E/DX2                !
 ! A39   A(5,22,23)             74.7585         estimate D2E/DX2                !
 ! A40   A(21,22,23)           120.0            estimate D2E/DX2                !
 ! D1    D(2,1,3,4)            180.0            estimate D2E/DX2                !
 ! D2    D(2,1,3,5)              0.0            estimate D2E/DX2                !
 ! D3    D(10,1,3,4)             0.0            estimate D2E/DX2                !
 ! D4    D(10,1,3,5)           180.0            estimate D2E/DX2                !
 ! D5    D(2,1,10,11)          120.0            estimate D2E/DX2                !
 ! D6    D(2,1,10,12)            0.0            estimate D2E/DX2                !
 ! D7    D(3,1,10,11)          -60.0            estimate D2E/DX2                !
 ! D8    D(3,1,10,12)          180.0            estimate D2E/DX2                !
 ! D9    D(1,3,5,6)            180.0            estimate D2E/DX2                !
 ! D10   D(1,3,5,7)              0.0            estimate D2E/DX2                !
 ! D11   D(1,3,5,22)           -92.1574         estimate D2E/DX2                !
 ! D12   D(4,3,5,6)              0.0            estimate D2E/DX2                !
 ! D13   D(4,3,5,7)            180.0            estimate D2E/DX2                !
 ! D14   D(4,3,5,22)            87.8426         estimate D2E/DX2                !
 ! D15   D(3,5,7,8)              0.0            estimate D2E/DX2                !
 ! D16   D(3,5,7,9)            180.0            estimate D2E/DX2                !
 ! D17   D(3,5,7,21)          -115.3296         estimate D2E/DX2                !
 ! D18   D(6,5,7,8)            180.0            estimate D2E/DX2                !
 ! D19   D(6,5,7,9)              0.0            estimate D2E/DX2                !
 ! D20   D(6,5,7,21)            64.6704         estimate D2E/DX2                !
 ! D21   D(22,5,7,8)            91.0913         estimate D2E/DX2                !
 ! D22   D(22,5,7,9)           -88.9087         estimate D2E/DX2                !
 ! D23   D(22,5,7,21)          -24.2383         estimate D2E/DX2                !
 ! D24   D(3,5,22,21)          145.2952         estimate D2E/DX2                !
 ! D25   D(3,5,22,23)          -93.9929         estimate D2E/DX2                !
 ! D26   D(6,5,22,21)          -94.8009         estimate D2E/DX2                !
 ! D27   D(6,5,22,23)           25.9111         estimate D2E/DX2                !
 ! D28   D(7,5,22,21)           25.0504         estimate D2E/DX2                !
 ! D29   D(7,5,22,23)          145.7624         estimate D2E/DX2                !
 ! D30   D(5,7,21,19)          124.8416         estimate D2E/DX2                !
 ! D31   D(5,7,21,22)           21.6407         estimate D2E/DX2                !
 ! D32   D(5,7,21,24)         -114.9579         estimate D2E/DX2                !
 ! D33   D(8,7,21,19)            2.8878         estimate D2E/DX2                !
 ! D34   D(8,7,21,22)         -100.3131         estimate D2E/DX2                !
 ! D35   D(8,7,21,24)          123.0882         estimate D2E/DX2                !
 ! D36   D(9,7,21,19)         -111.9122         estimate D2E/DX2                !
 ! D37   D(9,7,21,22)          144.8868         estimate D2E/DX2                !
 ! D38   D(9,7,21,24)            8.2882         estimate D2E/DX2                !
 ! D39   D(1,10,12,13)         174.871          estimate D2E/DX2                !
 ! D40   D(1,10,12,14)          -5.129          estimate D2E/DX2                !
 ! D41   D(11,10,12,13)         54.8711         estimate D2E/DX2                !
 ! D42   D(11,10,12,14)       -125.1289         estimate D2E/DX2                !
 ! D43   D(10,12,14,15)       -173.1567         estimate D2E/DX2                !
 ! D44   D(13,12,14,15)          6.8433         estimate D2E/DX2                !
 ! D45   D(17,16,19,20)       -180.0            estimate D2E/DX2                !
 ! D46   D(17,16,19,21)          0.0            estimate D2E/DX2                !
 ! D47   D(18,16,19,20)          0.0            estimate D2E/DX2                !
 ! D48   D(18,16,19,21)        180.0            estimate D2E/DX2                !
 ! D49   D(16,19,21,7)         -78.1753         estimate D2E/DX2                !
 ! D50   D(16,19,21,22)          0.0            estimate D2E/DX2                !
 ! D51   D(16,19,21,24)        180.0            estimate D2E/DX2                !
 ! D52   D(20,19,21,7)         101.8247         estimate D2E/DX2                !
 ! D53   D(20,19,21,22)        180.0            estimate D2E/DX2                !
 ! D54   D(20,19,21,24)          0.0            estimate D2E/DX2                !
 ! D55   D(7,21,22,5)          -22.5803         estimate D2E/DX2                !
 ! D56   D(7,21,22,23)         -95.8819         estimate D2E/DX2                !
 ! D57   D(19,21,22,5)        -106.6984         estimate D2E/DX2                !
 ! D58   D(19,21,22,23)        180.0            estimate D2E/DX2                !
 ! D59   D(24,21,22,5)          73.3016         estimate D2E/DX2                !
 ! D60   D(24,21,22,23)          0.0            estimate D2E/DX2                !
 --------------------------------------------------------------------------------
 Trust Radius=3.00D-01 FncErr=1.00D-07 GrdErr=1.00D-06 EigMax=2.50D+02 EigMin=1.00D-04
 Number of steps in this run=    135 maximum allowed number of steps=    144.
 GradGradGradGradGradGradGradGradGradGradGradGradGradGradGradGradGradGrad

 Leave Link  103 at Mon Nov 13 15:35:46 2017, MaxMem=   402653184 cpu:               0.3 elap:               0.1
 (Enter /n/sw/g16_nehalem/g16/l202.exe)
                          Input orientation:                          
 ---------------------------------------------------------------------
 Center     Atomic      Atomic             Coordinates (Angstroms)
 Number     Number       Type             X           Y           Z
 ---------------------------------------------------------------------
      1          6           0       -5.773562    2.109354   -1.516662
      2          1           0       -5.519515    3.090477   -1.859821
      3          6           0       -4.847987    1.346120   -0.886303
      4          1           0       -5.102033    0.364997   -0.543144
      5          6           0       -3.425678    1.892768   -0.663114
      6          1           0       -2.694889    1.290155   -0.165413
      7          6           0       -3.096444    3.134433   -1.094901
      8          1           0       -3.822944    3.741695   -1.593229
      9          1           0       -2.106601    3.508814   -0.936950
     10          7           0       -7.131220    1.587553   -1.729706
     11          1           0       -7.085597    0.755505   -2.282529
     12          6           0       -7.939883    2.596618   -2.428815
     13          8           0       -9.110958    2.323865   -2.799977
     14          8           0       -7.393901    3.892619   -2.688015
     15          1           0       -8.076915    4.461400   -3.050754
     16          6           0       -4.035089    2.784549   -3.638910
     17          1           0       -4.475038    1.901576   -3.224541
     18          1           0       -4.538181    3.314506   -4.420539
     19          6           0       -2.842873    3.233964   -3.177158
     20          1           0       -2.402923    4.116937   -3.591528
     21          6           0       -2.118795    2.471223   -2.052197
     22          8           0       -3.043034    1.355302   -1.784304
     23          1           0       -2.820221    0.676741   -1.076206
     24          8           0       -1.011483    2.882833   -1.618600
 ---------------------------------------------------------------------
                    Distance matrix (angstroms):
                    1          2          3          4          5
     1  C    0.000000
     2  H    1.070000   0.000000
     3  C    1.355200   2.107479   0.000000
     4  H    2.107479   3.055514   1.070000   0.000000
     5  C    2.507591   2.692725   1.540000   2.271265   0.000000
     6  H    3.460518   3.753756   2.271265   2.606327   1.070000
     7  C    2.897521   2.541320   2.511867   3.463611   1.355200
     8  H    2.544663   1.836712   2.699859   3.760431   2.107479
     9  H    3.967512   3.560152   3.492135   4.360193   2.103938
    10  N    1.470000   2.207556   2.445971   2.649561   3.868051
    11  H    2.034920   2.843131   2.702809   2.666924   4.160635
    12  C    2.400500   2.534923   3.674631   4.072994   4.898077
    13  O    3.582056   3.790784   4.773998   5.000193   6.088878
    14  O    2.679105   2.200605   4.026476   4.721996   4.883281
    15  H    3.631942   3.136567   4.981546   5.649651   5.825179
    16  C    2.825264   2.337151   3.210409   4.071409   3.165758
    17  H    2.155501   2.089707   2.432072   3.153424   2.768058
    18  H    3.378026   2.751452   4.057259   4.904256   4.168603
    19  C    3.551188   2.986701   3.582242   4.502534   2.908417
    20  H    4.438093   3.710199   4.579739   5.536687   3.816879
    21  C    3.711477   3.461990   3.173901   3.951346   1.993014
    22  O    2.845349   3.024813   2.016022   2.600127   1.300905
    23  H    3.311888   3.704910   2.143820   2.363897   1.419840
    24  O    4.825563   4.519254   4.197202   4.922266   2.778762
                    6          7          8          9         10
     6  H    0.000000
     7  C    2.103938   0.000000
     8  H    3.053066   1.070000   0.000000
     9  H    2.421527   1.070000   1.852234   0.000000
    10  N    4.713437   4.367520   3.950145   5.437509   0.000000
    11  H    4.903708   4.794069   4.476313   5.846512   1.000000
    12  C    5.860017   5.052472   4.354147   6.089741   1.470000
    13  O    7.012519   6.303862   5.606208   7.344112   2.367909
    14  O    5.934396   4.645535   3.738057   5.582928   2.510117
    15  H    6.881003   5.512830   4.553968   6.404705   3.301288
    16  C    4.011799   2.734127   2.268467   3.397678   3.829346
    17  H    3.591800   2.820607   2.544099   3.664121   3.064056
    18  H    5.059824   3.629173   2.947497   4.252733   4.116649
    19  C    3.587604   2.100000   1.930586   2.374063   4.816192
    20  H    4.451315   2.771179   2.480013   2.739417   5.676351
    21  C    2.299295   1.520546   2.174597   1.523325   5.099929
    22  O    1.657184   1.908779   2.517865   2.496503   4.095142
    23  H    1.105228   2.473236   3.265993   2.923915   4.454364
    24  O    2.735366   2.164400   2.939830   1.433800   6.256299
                   11         12         13         14         15
    11  H    0.000000
    12  C    2.034921   0.000000
    13  O    2.613349   1.258400   0.000000
    14  O    3.178200   1.430000   2.328477   0.000000
    15  H    3.912358   1.970533   2.387716   0.960000   0.000000
    16  C    3.906712   4.092318   5.165316   3.662464   4.415215
    17  H    3.002646   3.622349   4.674433   3.573776   4.422264
    18  H    4.196296   4.006733   4.951553   3.389837   3.964129
    19  C    4.994380   5.190929   6.345032   4.624387   5.377526
    20  H    5.911019   5.858430   6.988519   5.077058   5.710104
    21  C    5.259835   5.834606   7.033578   5.500125   6.360591
    22  O    4.117075   5.092680   6.228114   5.117101   6.049108
    23  H    4.433380   5.632621   6.727390   5.818793   6.771656
    24  O    6.470023   6.981482   8.204242   6.549701   7.379924
                   16         17         18         19         20
    16  C    0.000000
    17  H    1.070000   0.000000
    18  H    1.070000   1.852234   0.000000
    19  C    1.355200   2.107479   2.103938   0.000000
    20  H    2.107479   3.055514   2.427032   1.070000   0.000000
    21  C    2.507591   2.692725   3.489068   1.540000   2.271265
    22  O    2.542928   2.103172   3.608834   2.347228   3.361909
    23  H    3.533583   2.975564   4.592794   3.309668   4.282047
    24  O    3.637789   3.941843   4.524910   2.430306   2.711377
                   21         22         23         24
    21  C    0.000000
    22  O    1.473520   0.000000
    23  H    2.159796   1.005730   0.000000
    24  O    1.258400   2.547157   2.903888   0.000000
 Stoichiometry    C8H11NO4
 Framework group  C1[X(C8H11NO4)]
 Deg. of freedom    66
 Full point group                 C1      NOp   1
 Largest Abelian subgroup         C1      NOp   1
 Largest concise Abelian subgroup C1      NOp   1
                         Standard orientation:                         
 ---------------------------------------------------------------------
 Center     Atomic      Atomic             Coordinates (Angstroms)
 Number     Number       Type             X           Y           Z
 ---------------------------------------------------------------------
      1          6           0       -0.928687   -0.687618    0.207510
      2          1           0       -0.729771    0.273585    0.633445
      3          6           0        0.075864   -1.582390    0.043720
      4          1           0       -0.123052   -2.543593   -0.382215
      5          6           0        1.508607   -1.214500    0.472094
      6          1           0        2.301752   -1.920969    0.342774
      7          6           0        1.768318    0.000944    1.012291
      8          1           0        0.979301    0.711564    1.144090
      9          1           0        2.765814    0.250838    1.308020
     10          7           0       -2.296305   -1.038786   -0.201393
     11          1           0       -2.309679   -1.242053   -1.180425
     12          6           0       -3.196047    0.089854    0.077064
     13          8           0       -4.400740    0.043607   -0.283692
     14          8           0       -2.700635    1.244298    0.760238
     15          1           0       -3.429397    1.837259    0.957474
     16          6           0        0.527982    1.433910   -0.958402
     17          1           0        0.152241    0.475492   -1.250213
     18          1           0       -0.073303    2.307724   -1.099130
     19          6           0        1.762815    1.544863   -0.411185
     20          1           0        2.138556    2.503281   -0.119374
     21          6           0        2.628217    0.287224   -0.208642
     22          8           0        1.756493   -0.780733   -0.729053
     23          1           0        2.072268   -1.735581   -0.722354
     24          8           0        3.775757    0.382856    0.298878
 ---------------------------------------------------------------------
 Rotational constants (GHZ):           2.0204017           0.4214260           0.3798842
 Leave Link  202 at Mon Nov 13 15:35:46 2017, MaxMem=   402653184 cpu:               0.5 elap:               0.3
 (Enter /n/sw/g16_nehalem/g16/l301.exe)
 Standard basis: MIDIx (5D, 7F)
 Ernie: Thresh=  0.10000D-02 Tol=  0.10000D-05 Strict=F.
 There are   169 symmetry adapted cartesian basis functions of A   symmetry.
 There are   164 symmetry adapted basis functions of A   symmetry.
   164 basis functions,   258 primitive gaussians,   169 cartesian basis functions
    49 alpha electrons       49 beta electrons
       nuclear repulsion energy       840.7856040155 Hartrees.
 IExCor=  402 DFT=T Ex+Corr=B3LYP ExCW=0 ScaHFX=  0.200000
 ScaDFX=  0.800000  0.720000  1.000000  0.810000 ScalE2=  1.000000  1.000000
 IRadAn=      5 IRanWt=     -1 IRanGd=            0 ICorTp=0 IEmpDi=141
 NAtoms=   24 NActive=   24 NUniq=   24 SFac= 1.00D+00 NAtFMM=   60 NAOKFM=F Big=F
 Integral buffers will be    131072 words long.
 Raffenetti 2 integral format.
 Two-electron integral symmetry is turned on.
 R6Disp:  Grimme-D3(BJ) Dispersion energy=       -0.0465241657 Hartrees.
 Nuclear repulsion after empirical dispersion term =      840.7390798499 Hartrees.
 ------------------------------------------------------------------------------
 Polarizable Continuum Model (PCM)
 =================================
 Model                : PCM.
 Atomic radii         : UFF (Universal Force Field).
 Polarization charges : Total charges.
 Charge compensation  : None.
 Solution method      : On-the-fly selection.
 Cavity type          : Scaled VdW (van der Waals Surface) (Alpha=1.100).
 Cavity algorithm     : GePol (No added spheres)
                        Default sphere list used, NSphG=   24.
                        Lebedev-Laikov grids with approx.  5.0 points / Ang**2.
                        Smoothing algorithm: York/Karplus (Gamma=1.0000).
                        Polarization charges: spherical gaussians, with
                                              point-specific exponents (IZeta= 3).
                        Self-potential: point-specific (ISelfS= 7).
                        Self-field    : sphere-specific E.n sum rule (ISelfD= 2).
 1st derivatives      : Analytical E(r).r(x)/FMM algorithm (CHGder, D1EAlg=3).
                        Cavity 1st derivative terms included.
 Solvent              : 1,4-Dioxane, Eps=   2.209900 Eps(inf)=   2.023222
 ------------------------------------------------------------------------------
 GePol: Number of generator spheres                  =      24
 GePol: Total number of spheres                      =      24
 GePol: Number of exposed spheres                    =      24 (100.00%)
 GePol: Number of points                             =    1767
 GePol: Average weight of points                     =       0.13
 GePol: Minimum weight of points                     =   0.39D-11
 GePol: Maximum weight of points                     =    0.20577
 GePol: Number of points with low weight             =     100
 GePol: Fraction of low-weight points (<1% of avg)   =       5.66%
 GePol: Cavity surface area                          =    232.692 Ang**2
 GePol: Cavity volume                                =    241.763 Ang**3
 Leave Link  301 at Mon Nov 13 15:35:47 2017, MaxMem=   402653184 cpu:               0.8 elap:               0.4
 (Enter /n/sw/g16_nehalem/g16/l302.exe)
 NPDir=0 NMtPBC=     1 NCelOv=     1 NCel=       1 NClECP=     1 NCelD=      1
         NCelK=      1 NCelE2=     1 NClLst=     1 CellRange=     0.0.
 One-electron integrals computed using PRISM.
 One-electron integral symmetry used in STVInt
 NBasis=   164 RedAO= T EigKep=  1.34D-03  NBF=   164
 NBsUse=   164 1.00D-06 EigRej= -1.00D+00 NBFU=   164
 Precomputing XC quadrature grid using
 IXCGrd= 4 IRadAn=           5 IRanWt=          -1 IRanGd=           0 AccXCQ= 0.00D+00.
 Generated NRdTot=       0 NPtTot=           0 NUsed=           0 NTot=          32
 NSgBfM=   168   168   168   168   168 MxSgAt=    24 MxSgA2=    24.
 Leave Link  302 at Mon Nov 13 15:35:51 2017, MaxMem=   402653184 cpu:               8.8 elap:               4.4
 (Enter /n/sw/g16_nehalem/g16/l303.exe)
 DipDrv:  MaxL=1.
 Leave Link  303 at Mon Nov 13 15:35:52 2017, MaxMem=   402653184 cpu:               1.8 elap:               0.9
 (Enter /n/sw/g16_nehalem/g16/l401.exe)
 ExpMin= 1.47D-01 ExpMax= 2.82D+02 ExpMxC= 2.82D+02 IAcc=3 IRadAn=         5 AccDes= 0.00D+00
 Harris functional with IExCor=  402 and IRadAn=       5 diagonalized for initial guess.
 HarFok:  IExCor=  402 AccDes= 0.00D+00 IRadAn=         5 IDoV= 1 UseB2=F ITyADJ=14
 ICtDFT=  3500011 ScaDFX=  1.000000  1.000000  1.000000  1.000000
 FoFCou: FMM=F IPFlag=           0 FMFlag=      100000 FMFlg1=           0
         NFxFlg=           0 DoJE=T BraDBF=F KetDBF=T FulRan=T
         wScrn=  0.000000 ICntrl=       500 IOpCl=  0 I1Cent=   200000004 NGrid=           0
         NMat0=    1 NMatS0=      1 NMatT0=    0 NMatD0=    1 NMtDS0=    0 NMtDT0=    0
 Petite list used in FoFCou.
 Harris En= -662.810927196905    
 JPrj=0 DoOrth=F DoCkMO=F.
 Leave Link  401 at Mon Nov 13 15:36:01 2017, MaxMem=   402653184 cpu:              18.9 elap:               9.4
 (Enter /n/sw/g16_nehalem/g16/l502.exe)
 Keep R1 ints in memory in canonical form, NReq=95525121.
 FoFCou: FMM=F IPFlag=           0 FMFlag=           0 FMFlg1=           0
         NFxFlg=           0 DoJE=F BraDBF=F KetDBF=F FulRan=T
         wScrn=  0.000000 ICntrl=       600 IOpCl=  0 I1Cent=           0 NGrid=           0
         NMat0=    1 NMatS0=  13530 NMatT0=    0 NMatD0=    1 NMtDS0=    0 NMtDT0=    0
 Symmetry not used in FoFCou.
 Two-electron integral symmetry not used.
 Closed shell SCF:
 Using DIIS extrapolation, IDIIS=  1040.
 NGot=   402653184 LenX=   311055647 LenY=   311026645
 Requested convergence on RMS density matrix=1.00D-08 within 128 cycles.
 Requested convergence on MAX density matrix=1.00D-06.
 Requested convergence on             energy=1.00D-06.
 No special actions if energy rises.

 Cycle   1  Pass 1  IDiag  1:
 Inv3:  Mode=1 IEnd=     9366867.
 Iteration    1 A*A^-1 deviation from unit magnitude is 3.55D-15 for   1732.
 Iteration    1 A*A^-1 deviation from orthogonality  is 2.67D-15 for   1763    412.
 Iteration    1 A^-1*A deviation from unit magnitude is 3.55D-15 for   1732.
 Iteration    1 A^-1*A deviation from orthogonality  is 2.20D-15 for   1758   1380.
 E= -662.416321963851    
 DIIS: error= 5.08D-02 at cycle   1 NSaved=   1.
 NSaved= 1 IEnMin= 1 EnMin= -662.416321963851     IErMin= 1 ErrMin= 5.08D-02
 ErrMax= 5.08D-02  0.00D+00 EMaxC= 1.00D-01 BMatC= 4.24D-01 BMatP= 4.24D-01
 IDIUse=3 WtCom= 4.92D-01 WtEn= 5.08D-01
 Coeff-Com:  0.100D+01
 Coeff-En:   0.100D+01
 Coeff:      0.100D+01
 Gap=     0.205 Goal=   None    Shift=    0.000
 GapD=    0.205 DampG=1.000 DampE=0.500 DampFc=0.5000 IDamp=-1.
 Damping current iteration by 5.00D-01
 RMSDP=1.71D-02 MaxDP=6.75D-01              OVMax= 4.49D-01

 Cycle   2  Pass 1  IDiag  1:
 E= -662.449842530958     Delta-E=       -0.033520567107 Rises=F Damp=T
 DIIS: error= 1.97D-02 at cycle   2 NSaved=   2.
 NSaved= 2 IEnMin= 2 EnMin= -662.449842530958     IErMin= 2 ErrMin= 1.97D-02
 ErrMax= 1.97D-02  0.00D+00 EMaxC= 1.00D-01 BMatC= 9.06D-02 BMatP= 4.24D-01
 IDIUse=3 WtCom= 8.03D-01 WtEn= 1.97D-01
 Coeff-Com:  0.269D+00 0.731D+00
 Coeff-En:   0.457D+00 0.543D+00
 Coeff:      0.306D+00 0.694D+00
 Gap=     0.126 Goal=   None    Shift=    0.000
 RMSDP=5.68D-03 MaxDP=1.92D-01 DE=-3.35D-02 OVMax= 3.33D-01

 Cycle   3  Pass 1  IDiag  1:
 E= -662.718008969911     Delta-E=       -0.268166438953 Rises=F Damp=F
 DIIS: error= 2.15D-02 at cycle   3 NSaved=   3.
 NSaved= 3 IEnMin= 3 EnMin= -662.718008969911     IErMin= 2 ErrMin= 1.97D-02
 ErrMax= 2.15D-02  0.00D+00 EMaxC= 1.00D-01 BMatC= 6.81D-02 BMatP= 9.06D-02
 IDIUse=3 WtCom= 7.85D-01 WtEn= 2.15D-01
 Coeff-Com:  0.114D+00 0.455D+00 0.431D+00
 Coeff-En:   0.000D+00 0.000D+00 0.100D+01
 Coeff:      0.893D-01 0.357D+00 0.553D+00
 Gap=     0.161 Goal=   None    Shift=    0.000
 RMSDP=2.96D-03 MaxDP=1.00D-01 DE=-2.68D-01 OVMax= 7.34D-02

 Cycle   4  Pass 1  IDiag  1:
 E= -662.761526576004     Delta-E=       -0.043517606092 Rises=F Damp=F
 DIIS: error= 1.26D-02 at cycle   4 NSaved=   4.
 NSaved= 4 IEnMin= 4 EnMin= -662.761526576004     IErMin= 4 ErrMin= 1.26D-02
 ErrMax= 1.26D-02  0.00D+00 EMaxC= 1.00D-01 BMatC= 1.88D-02 BMatP= 6.81D-02
 IDIUse=3 WtCom= 8.74D-01 WtEn= 1.26D-01
 Coeff-Com:  0.188D-01 0.971D-01 0.347D+00 0.537D+00
 Coeff-En:   0.000D+00 0.000D+00 0.235D+00 0.765D+00
 Coeff:      0.164D-01 0.849D-01 0.333D+00 0.566D+00
 Gap=     0.149 Goal=   None    Shift=    0.000
 RMSDP=1.12D-03 MaxDP=4.02D-02 DE=-4.35D-02 OVMax= 3.40D-02

 Cycle   5  Pass 1  IDiag  1:
 E= -662.775563076582     Delta-E=       -0.014036500578 Rises=F Damp=F
 DIIS: error= 3.64D-03 at cycle   5 NSaved=   5.
 NSaved= 5 IEnMin= 5 EnMin= -662.775563076582     IErMin= 5 ErrMin= 3.64D-03
 ErrMax= 3.64D-03  0.00D+00 EMaxC= 1.00D-01 BMatC= 8.02D-04 BMatP= 1.88D-02
 IDIUse=3 WtCom= 9.64D-01 WtEn= 3.64D-02
 Coeff-Com: -0.106D-02 0.125D-01 0.128D+00 0.296D+00 0.564D+00
 Coeff-En:   0.000D+00 0.000D+00 0.000D+00 0.000D+00 0.100D+01
 Coeff:     -0.102D-02 0.121D-01 0.123D+00 0.286D+00 0.580D+00
 Gap=     0.149 Goal=   None    Shift=    0.000
 RMSDP=2.36D-04 MaxDP=4.79D-03 DE=-1.40D-02 OVMax= 1.07D-02

 Cycle   6  Pass 1  IDiag  1:
 E= -662.776125131270     Delta-E=       -0.000562054688 Rises=F Damp=F
 DIIS: error= 1.45D-03 at cycle   6 NSaved=   6.
 NSaved= 6 IEnMin= 6 EnMin= -662.776125131270     IErMin= 6 ErrMin= 1.45D-03
 ErrMax= 1.45D-03  0.00D+00 EMaxC= 1.00D-01 BMatC= 1.42D-04 BMatP= 8.02D-04
 IDIUse=3 WtCom= 9.86D-01 WtEn= 1.45D-02
 Coeff-Com: -0.243D-02-0.290D-02 0.393D-01 0.113D+00 0.364D+00 0.489D+00
 Coeff-En:   0.000D+00 0.000D+00 0.000D+00 0.000D+00 0.122D+00 0.878D+00
 Coeff:     -0.239D-02-0.286D-02 0.387D-01 0.112D+00 0.360D+00 0.495D+00
 Gap=     0.149 Goal=   None    Shift=    0.000
 RMSDP=1.03D-04 MaxDP=4.28D-03 DE=-5.62D-04 OVMax= 3.50D-03

 Cycle   7  Pass 1  IDiag  1:
 E= -662.776229664799     Delta-E=       -0.000104533529 Rises=F Damp=F
 DIIS: error= 2.47D-04 at cycle   7 NSaved=   7.
 NSaved= 7 IEnMin= 7 EnMin= -662.776229664799     IErMin= 7 ErrMin= 2.47D-04
 ErrMax= 2.47D-04  0.00D+00 EMaxC= 1.00D-01 BMatC= 1.26D-05 BMatP= 1.42D-04
 IDIUse=3 WtCom= 9.98D-01 WtEn= 2.47D-03
 Coeff-Com: -0.899D-03-0.189D-02 0.101D-01 0.305D-01 0.146D+00 0.292D+00
 Coeff-Com:  0.524D+00
 Coeff-En:   0.000D+00 0.000D+00 0.000D+00 0.000D+00 0.000D+00 0.000D+00
 Coeff-En:   0.100D+01
 Coeff:     -0.897D-03-0.188D-02 0.101D-01 0.304D-01 0.146D+00 0.291D+00
 Coeff:      0.525D+00
 Gap=     0.149 Goal=   None    Shift=    0.000
 RMSDP=3.45D-05 MaxDP=1.01D-03 DE=-1.05D-04 OVMax= 1.10D-03

 Cycle   8  Pass 1  IDiag  1:
 E= -662.776239135154     Delta-E=       -0.000009470355 Rises=F Damp=F
 DIIS: error= 1.18D-04 at cycle   8 NSaved=   8.
 NSaved= 8 IEnMin= 8 EnMin= -662.776239135154     IErMin= 8 ErrMin= 1.18D-04
 ErrMax= 1.18D-04  0.00D+00 EMaxC= 1.00D-01 BMatC= 1.40D-06 BMatP= 1.26D-05
 IDIUse=3 WtCom= 9.99D-01 WtEn= 1.18D-03
 Coeff-Com: -0.207D-03-0.128D-02 0.779D-03 0.329D-02 0.428D-01 0.113D+00
 Coeff-Com:  0.299D+00 0.543D+00
 Coeff-En:   0.000D+00 0.000D+00 0.000D+00 0.000D+00 0.000D+00 0.000D+00
 Coeff-En:   0.000D+00 0.100D+01
 Coeff:     -0.207D-03-0.128D-02 0.778D-03 0.329D-02 0.428D-01 0.112D+00
 Coeff:      0.299D+00 0.543D+00
 Gap=     0.149 Goal=   None    Shift=    0.000
 RMSDP=1.38D-05 MaxDP=2.90D-04 DE=-9.47D-06 OVMax= 4.53D-04

 Cycle   9  Pass 1  IDiag  1:
 E= -662.776240315122     Delta-E=       -0.000001179968 Rises=F Damp=F
 DIIS: error= 1.88D-05 at cycle   9 NSaved=   9.
 NSaved= 9 IEnMin= 9 EnMin= -662.776240315122     IErMin= 9 ErrMin= 1.88D-05
 ErrMax= 1.88D-05  0.00D+00 EMaxC= 1.00D-01 BMatC= 1.60D-07 BMatP= 1.40D-06
 IDIUse=1 WtCom= 1.00D+00 WtEn= 0.00D+00
 Coeff-Com:  0.314D-04-0.474D-03-0.767D-03-0.215D-02 0.434D-02 0.221D-01
 Coeff-Com:  0.849D-01 0.296D+00 0.596D+00
 Coeff:      0.314D-04-0.474D-03-0.767D-03-0.215D-02 0.434D-02 0.221D-01
 Coeff:      0.849D-01 0.296D+00 0.596D+00
 Gap=     0.149 Goal=   None    Shift=    0.000
 RMSDP=5.91D-06 MaxDP=2.00D-04 DE=-1.18D-06 OVMax= 2.34D-04

 Cycle  10  Pass 1  IDiag  1:
 E= -662.776240479919     Delta-E=       -0.000000164797 Rises=F Damp=F
 DIIS: error= 8.20D-06 at cycle  10 NSaved=  10.
 NSaved=10 IEnMin=10 EnMin= -662.776240479919     IErMin=10 ErrMin= 8.20D-06
 ErrMax= 8.20D-06  0.00D+00 EMaxC= 1.00D-01 BMatC= 1.89D-08 BMatP= 1.60D-07
 IDIUse=1 WtCom= 1.00D+00 WtEn= 0.00D+00
 Coeff-Com:  0.486D-04-0.914D-04-0.493D-03-0.155D-02-0.377D-02-0.427D-02
 Coeff-Com:  0.166D-02 0.788D-01 0.309D+00 0.620D+00
 Coeff:      0.486D-04-0.914D-04-0.493D-03-0.155D-02-0.377D-02-0.427D-02
 Coeff:      0.166D-02 0.788D-01 0.309D+00 0.620D+00
 Gap=     0.149 Goal=   None    Shift=    0.000
 RMSDP=2.36D-06 MaxDP=6.05D-05 DE=-1.65D-07 OVMax= 1.14D-04

 Cycle  11  Pass 1  IDiag  1:
 E= -662.776240501778     Delta-E=       -0.000000021859 Rises=F Damp=F
 DIIS: error= 3.60D-06 at cycle  11 NSaved=  11.
 NSaved=11 IEnMin=11 EnMin= -662.776240501778     IErMin=11 ErrMin= 3.60D-06
 ErrMax= 3.60D-06  0.00D+00 EMaxC= 1.00D-01 BMatC= 2.95D-09 BMatP= 1.89D-08
 IDIUse=1 WtCom= 1.00D+00 WtEn= 0.00D+00
 Coeff-Com:  0.177D-04 0.916D-05-0.150D-03-0.474D-03-0.236D-02-0.491D-02
 Coeff-Com: -0.104D-01 0.276D-03 0.757D-01 0.339D+00 0.603D+00
 Coeff:      0.177D-04 0.916D-05-0.150D-03-0.474D-03-0.236D-02-0.491D-02
 Coeff:     -0.104D-01 0.276D-03 0.757D-01 0.339D+00 0.603D+00
 Gap=     0.149 Goal=   None    Shift=    0.000
 RMSDP=8.91D-07 MaxDP=2.10D-05 DE=-2.19D-08 OVMax= 4.49D-05

 Cycle  12  Pass 1  IDiag  1:
 E= -662.776240505211     Delta-E=       -0.000000003433 Rises=F Damp=F
 DIIS: error= 7.60D-07 at cycle  12 NSaved=  12.
 NSaved=12 IEnMin=12 EnMin= -662.776240505211     IErMin=12 ErrMin= 7.60D-07
 ErrMax= 7.60D-07  0.00D+00 EMaxC= 1.00D-01 BMatC= 2.82D-10 BMatP= 2.95D-09
 IDIUse=1 WtCom= 1.00D+00 WtEn= 0.00D+00
 Coeff-Com:  0.277D-05 0.132D-04-0.231D-04-0.608D-04-0.753D-03-0.202D-02
 Coeff-Com: -0.520D-02-0.909D-02 0.125D-02 0.987D-01 0.302D+00 0.615D+00
 Coeff:      0.277D-05 0.132D-04-0.231D-04-0.608D-04-0.753D-03-0.202D-02
 Coeff:     -0.520D-02-0.909D-02 0.125D-02 0.987D-01 0.302D+00 0.615D+00
 Gap=     0.149 Goal=   None    Shift=    0.000
 RMSDP=2.39D-07 MaxDP=6.06D-06 DE=-3.43D-09 OVMax= 1.01D-05

 Cycle  13  Pass 1  IDiag  1:
 E= -662.776240505512     Delta-E=       -0.000000000301 Rises=F Damp=F
 DIIS: error= 2.18D-07 at cycle  13 NSaved=  13.
 NSaved=13 IEnMin=13 EnMin= -662.776240505512     IErMin=13 ErrMin= 2.18D-07
 ErrMax= 2.18D-07  0.00D+00 EMaxC= 1.00D-01 BMatC= 2.53D-11 BMatP= 2.82D-10
 IDIUse=1 WtCom= 1.00D+00 WtEn= 0.00D+00
 Coeff-Com: -0.178D-05 0.312D-05 0.845D-05 0.400D-04-0.796D-05-0.253D-03
 Coeff-Com: -0.859D-03-0.457D-02-0.104D-01 0.188D-02 0.640D-01 0.269D+00
 Coeff-Com:  0.681D+00
 Coeff:     -0.178D-05 0.312D-05 0.845D-05 0.400D-04-0.796D-05-0.253D-03
 Coeff:     -0.859D-03-0.457D-02-0.104D-01 0.188D-02 0.640D-01 0.269D+00
 Coeff:      0.681D+00
 Gap=     0.149 Goal=   None    Shift=    0.000
 RMSDP=8.31D-08 MaxDP=1.84D-06 DE=-3.01D-10 OVMax= 4.46D-06

 Cycle  14  Pass 1  IDiag  1:
 E= -662.776240505512     Delta-E=        0.000000000000 Rises=F Damp=F
 DIIS: error= 1.44D-07 at cycle  14 NSaved=  14.
 NSaved=14 IEnMin=14 EnMin= -662.776240505512     IErMin=14 ErrMin= 1.44D-07
 ErrMax= 1.44D-07  0.00D+00 EMaxC= 1.00D-01 BMatC= 4.80D-12 BMatP= 2.53D-11
 IDIUse=1 WtCom= 1.00D+00 WtEn= 0.00D+00
 Coeff-Com: -0.860D-06 0.125D-05 0.608D-05 0.236D-04 0.494D-04 0.169D-04
 Coeff-Com: -0.101D-04-0.160D-02-0.541D-02-0.694D-02 0.815D-02 0.839D-01
 Coeff-Com:  0.375D+00 0.547D+00
 Coeff:     -0.860D-06 0.125D-05 0.608D-05 0.236D-04 0.494D-04 0.169D-04
 Coeff:     -0.101D-04-0.160D-02-0.541D-02-0.694D-02 0.815D-02 0.839D-01
 Coeff:      0.375D+00 0.547D+00
 Gap=     0.149 Goal=   None    Shift=    0.000
 RMSDP=2.56D-08 MaxDP=4.96D-07 DE=-2.27D-13 OVMax= 9.04D-07

 Cycle  15  Pass 1  IDiag  1:
 E= -662.776240505530     Delta-E=       -0.000000000018 Rises=F Damp=F
 DIIS: error= 5.43D-08 at cycle  15 NSaved=  15.
 NSaved=15 IEnMin=15 EnMin= -662.776240505530     IErMin=15 ErrMin= 5.43D-08
 ErrMax= 5.43D-08  0.00D+00 EMaxC= 1.00D-01 BMatC= 4.65D-13 BMatP= 4.80D-12
 IDIUse=1 WtCom= 1.00D+00 WtEn= 0.00D+00
 Coeff-Com: -0.203D-06 0.527D-07 0.177D-05 0.673D-05 0.254D-04 0.377D-04
 Coeff-Com:  0.944D-04-0.202D-03-0.135D-02-0.309D-02-0.265D-02 0.863D-02
 Coeff-Com:  0.110D+00 0.282D+00 0.606D+00
 Coeff:     -0.203D-06 0.527D-07 0.177D-05 0.673D-05 0.254D-04 0.377D-04
 Coeff:      0.944D-04-0.202D-03-0.135D-02-0.309D-02-0.265D-02 0.863D-02
 Coeff:      0.110D+00 0.282D+00 0.606D+00
 Gap=     0.149 Goal=   None    Shift=    0.000
 RMSDP=8.32D-09 MaxDP=1.96D-07 DE=-1.82D-11 OVMax= 3.54D-07

 Error on total polarization charges =  0.00427
 SCF Done:  E(RB3LYP) =  -662.776240506     A.U. after   15 cycles
            NFock= 15  Conv=0.83D-08     -V/T= 2.0121
 KE= 6.548741240246D+02 PE=-3.226400634376D+03 EE= 1.068011189996D+03
 Leave Link  502 at Mon Nov 13 15:39:26 2017, MaxMem=   402653184 cpu:             403.3 elap:             204.4
 (Enter /n/sw/g16_nehalem/g16/l601.exe)
 Copying SCF densities to generalized density rwf, IOpCl= 0 IROHF=0.

 **********************************************************************

            Population analysis using the SCF density.

 **********************************************************************

 Orbital symmetries:
       Occupied  (A) (A) (A) (A) (A) (A) (A) (A) (A) (A) (A) (A)
                 (A) (A) (A) (A) (A) (A) (A) (A) (A) (A) (A) (A)
                 (A) (A) (A) (A) (A) (A) (A) (A) (A) (A) (A) (A)
                 (A) (A) (A) (A) (A) (A) (A) (A) (A) (A) (A) (A)
                 (A)
       Virtual   (A) (A) (A) (A) (A) (A) (A) (A) (A) (A) (A) (A)
                 (A) (A) (A) (A) (A) (A) (A) (A) (A) (A) (A) (A)
                 (A) (A) (A) (A) (A) (A) (A) (A) (A) (A) (A) (A)
                 (A) (A) (A) (A) (A) (A) (A) (A) (A) (A) (A) (A)
                 (A) (A) (A) (A) (A) (A) (A) (A) (A) (A) (A) (A)
                 (A) (A) (A) (A) (A) (A) (A) (A) (A) (A) (A) (A)
                 (A) (A) (A) (A) (A) (A) (A) (A) (A) (A) (A) (A)
                 (A) (A) (A) (A) (A) (A) (A) (A) (A) (A) (A) (A)
                 (A) (A) (A) (A) (A) (A) (A) (A) (A) (A) (A) (A)
                 (A) (A) (A) (A) (A) (A) (A)
 The electronic state is 1-A.
 Alpha  occ. eigenvalues --  -19.15396 -19.08002 -19.01879 -18.95048 -14.30224
 Alpha  occ. eigenvalues --  -10.29653 -10.22778 -10.22514 -10.17842 -10.14897
 Alpha  occ. eigenvalues --  -10.12845 -10.09110 -10.07509  -1.28262  -1.09085
 Alpha  occ. eigenvalues --   -1.02242  -1.00762  -0.94508  -0.85815  -0.82405
 Alpha  occ. eigenvalues --   -0.77782  -0.73391  -0.65480  -0.64225  -0.62308
 Alpha  occ. eigenvalues --   -0.59832  -0.57255  -0.54487  -0.52471  -0.51133
 Alpha  occ. eigenvalues --   -0.50537  -0.47646  -0.46271  -0.44272  -0.43973
 Alpha  occ. eigenvalues --   -0.42581  -0.41317  -0.40241  -0.39548  -0.36997
 Alpha  occ. eigenvalues --   -0.35452  -0.34164  -0.30978  -0.30318  -0.27348
 Alpha  occ. eigenvalues --   -0.26352  -0.24035  -0.21857  -0.18306
 Alpha virt. eigenvalues --   -0.03396  -0.00232   0.00584   0.02669   0.05624
 Alpha virt. eigenvalues --    0.08990   0.09517   0.10907   0.12909   0.13681
 Alpha virt. eigenvalues --    0.13984   0.15630   0.17763   0.18317   0.18994
 Alpha virt. eigenvalues --    0.22384   0.23724   0.24047   0.28780   0.30362
 Alpha virt. eigenvalues --    0.32221   0.33146   0.34868   0.36049   0.38288
 Alpha virt. eigenvalues --    0.42626   0.49103   0.51212   0.53285   0.56083
 Alpha virt. eigenvalues --    0.59810   0.61929   0.66195   0.67766   0.68388
 Alpha virt. eigenvalues --    0.68998   0.71446   0.73137   0.74042   0.75918
 Alpha virt. eigenvalues --    0.76710   0.79287   0.80890   0.81658   0.81972
 Alpha virt. eigenvalues --    0.83793   0.85953   0.86538   0.89131   0.89554
 Alpha virt. eigenvalues --    0.91428   0.92606   0.94299   0.95284   0.96046
 Alpha virt. eigenvalues --    0.98131   0.99887   1.02678   1.03180   1.04819
 Alpha virt. eigenvalues --    1.06156   1.09799   1.11894   1.14707   1.20166
 Alpha virt. eigenvalues --    1.25772   1.28790   1.33717   1.35889   1.37868
 Alpha virt. eigenvalues --    1.41014   1.41943   1.44326   1.45042   1.50990
 Alpha virt. eigenvalues --    1.51256   1.54736   1.55156   1.58259   1.59872
 Alpha virt. eigenvalues --    1.60398   1.62501   1.68449   1.69274   1.69838
 Alpha virt. eigenvalues --    1.71834   1.72839   1.75228   1.75950   1.78433
 Alpha virt. eigenvalues --    1.79830   1.80243   1.81344   1.83157   1.85033
 Alpha virt. eigenvalues --    1.89442   1.90150   1.96709   1.97697   1.99558
 Alpha virt. eigenvalues --    2.04926   2.05567   2.12425   2.14936   2.22389
 Alpha virt. eigenvalues --    2.23212   2.33333   2.37940   2.41443   2.52468
 Alpha virt. eigenvalues --    2.53819   2.63399   2.70333   2.93423   2.98694
          Condensed to atoms (all electrons):
               1          2          3          4          5          6
     1  C    4.941777   0.332280   0.598529  -0.021002  -0.016310  -0.000085
     2  H    0.332280   0.431062  -0.019052   0.002717  -0.005283   0.000206
     3  C    0.598529  -0.019052   5.092857   0.384970   0.227778  -0.029000
     4  H   -0.021002   0.002717   0.384970   0.467646  -0.021797  -0.001834
     5  C   -0.016310  -0.005283   0.227778  -0.021797   6.171597   0.386135
     6  H   -0.000085   0.000206  -0.029000  -0.001834   0.386135   0.559065
     7  C   -0.015954   0.001703  -0.000802   0.001554  -0.448794  -0.013947
     8  H    0.007097   0.013976  -0.019137   0.000420   0.029673   0.002677
     9  H    0.000486   0.000746  -0.005102   0.000073   0.136474  -0.006993
    10  N    0.220814  -0.016034  -0.044794  -0.002025   0.002176  -0.000001
    11  H   -0.015879   0.001405  -0.005899   0.002130  -0.000260  -0.000001
    12  C   -0.032331  -0.006330   0.003936  -0.000097  -0.000068   0.000000
    13  O    0.001653   0.000489  -0.000015  -0.000001   0.000000   0.000000
    14  O   -0.007971   0.034866   0.000509  -0.000002   0.000005   0.000000
    15  H    0.000071  -0.000850  -0.000013   0.000000  -0.000001   0.000000
    16  C    0.004049   0.003229  -0.015807   0.000243   0.011284  -0.000970
    17  H   -0.001160  -0.012357   0.000017  -0.000633  -0.008692   0.000618
    18  H   -0.001437   0.002002   0.000283  -0.000001  -0.000103   0.000016
    19  C   -0.006614   0.003699  -0.004790  -0.000068   0.067433   0.000039
    20  H    0.000069  -0.000334   0.000082  -0.000001  -0.001172   0.000018
    21  C    0.000186  -0.001370   0.034450  -0.000557  -0.326729   0.011160
    22  O   -0.012955   0.000977  -0.104336   0.001188  -0.219081  -0.086789
    23  H   -0.000119  -0.000238   0.023839   0.000480  -0.156099   0.007075
    24  O   -0.000026   0.000039  -0.000519   0.000006   0.034427   0.011511
               7          8          9         10         11         12
     1  C   -0.015954   0.007097   0.000486   0.220814  -0.015879  -0.032331
     2  H    0.001703   0.013976   0.000746  -0.016034   0.001405  -0.006330
     3  C   -0.000802  -0.019137  -0.005102  -0.044794  -0.005899   0.003936
     4  H    0.001554   0.000420   0.000073  -0.002025   0.002130  -0.000097
     5  C   -0.448794   0.029673   0.136474   0.002176  -0.000260  -0.000068
     6  H   -0.013947   0.002677  -0.006993  -0.000001  -0.000001   0.000000
     7  C    7.321338   0.277067  -0.183606   0.000291   0.000015  -0.000031
     8  H    0.277067   0.448119   0.038851  -0.000074   0.000020  -0.000021
     9  H   -0.183606   0.038851   0.682727   0.000000   0.000000   0.000000
    10  N    0.000291  -0.000074   0.000000   7.155956   0.282890   0.238595
    11  H    0.000015   0.000020   0.000000   0.282890   0.396612  -0.007410
    12  C   -0.000031  -0.000021   0.000000   0.238595  -0.007410   4.118968
    13  O    0.000000   0.000000   0.000000  -0.067590   0.003392   0.497242
    14  O    0.000014  -0.000570   0.000000  -0.060766   0.002271   0.225631
    15  H   -0.000002   0.000016   0.000000   0.005644  -0.000263   0.003093
    16  C   -0.062316  -0.006224   0.001507  -0.001454   0.000139   0.000134
    17  H    0.017591  -0.002027  -0.001148   0.002172  -0.000150   0.000262
    18  H   -0.000610   0.000428   0.000082   0.000014  -0.000029   0.000122
    19  C   -0.498693   0.025830   0.080266   0.000057  -0.000019   0.000030
    20  H    0.017821  -0.001940  -0.005034   0.000000   0.000000   0.000000
    21  C    0.506862  -0.079008  -0.169126  -0.000006   0.000003  -0.000002
    22  O   -0.209173   0.010635   0.032597  -0.000030   0.000078   0.000004
    23  H    0.081984  -0.002845  -0.012953   0.000009  -0.000012  -0.000002
    24  O   -0.341934   0.008741   0.174677   0.000000   0.000000   0.000000
              13         14         15         16         17         18
     1  C    0.001653  -0.007971   0.000071   0.004049  -0.001160  -0.001437
     2  H    0.000489   0.034866  -0.000850   0.003229  -0.012357   0.002002
     3  C   -0.000015   0.000509  -0.000013  -0.015807   0.000017   0.000283
     4  H   -0.000001  -0.000002   0.000000   0.000243  -0.000633  -0.000001
     5  C    0.000000   0.000005  -0.000001   0.011284  -0.008692  -0.000103
     6  H    0.000000   0.000000   0.000000  -0.000970   0.000618   0.000016
     7  C    0.000000   0.000014  -0.000002  -0.062316   0.017591  -0.000610
     8  H    0.000000  -0.000570   0.000016  -0.006224  -0.002027   0.000428
     9  H    0.000000   0.000000   0.000000   0.001507  -0.001148   0.000082
    10  N   -0.067590  -0.060766   0.005644  -0.001454   0.002172   0.000014
    11  H    0.003392   0.002271  -0.000263   0.000139  -0.000150  -0.000029
    12  C    0.497242   0.225631   0.003093   0.000134   0.000262   0.000122
    13  O    8.179337  -0.060274   0.010436  -0.000002   0.000002   0.000000
    14  O   -0.060274   8.245056   0.223777  -0.000719  -0.000031   0.001079
    15  H    0.010436   0.223777   0.357067   0.000038  -0.000003   0.000004
    16  C   -0.000002  -0.000719   0.000038   5.259568   0.387696   0.382197
    17  H    0.000002  -0.000031  -0.000003   0.387696   0.497167  -0.024732
    18  H    0.000000   0.001079   0.000004   0.382197  -0.024732   0.517574
    19  C    0.000000   0.000031   0.000001   0.500618  -0.044734  -0.025324
    20  H    0.000000   0.000000   0.000000  -0.023215   0.004189  -0.007069
    21  C    0.000000   0.000000   0.000000  -0.091578  -0.009880   0.004965
    22  O    0.000000   0.000000   0.000000   0.018624   0.008666   0.000206
    23  H    0.000000   0.000000   0.000000  -0.000917   0.002054   0.000002
    24  O    0.000000   0.000000   0.000000   0.003902   0.000026  -0.000027
              19         20         21         22         23         24
     1  C   -0.006614   0.000069   0.000186  -0.012955  -0.000119  -0.000026
     2  H    0.003699  -0.000334  -0.001370   0.000977  -0.000238   0.000039
     3  C   -0.004790   0.000082   0.034450  -0.104336   0.023839  -0.000519
     4  H   -0.000068  -0.000001  -0.000557   0.001188   0.000480   0.000006
     5  C    0.067433  -0.001172  -0.326729  -0.219081  -0.156099   0.034427
     6  H    0.000039   0.000018   0.011160  -0.086789   0.007075   0.011511
     7  C   -0.498693   0.017821   0.506862  -0.209173   0.081984  -0.341934
     8  H    0.025830  -0.001940  -0.079008   0.010635  -0.002845   0.008741
     9  H    0.080266  -0.005034  -0.169126   0.032597  -0.012953   0.174677
    10  N    0.000057   0.000000  -0.000006  -0.000030   0.000009   0.000000
    11  H   -0.000019   0.000000   0.000003   0.000078  -0.000012   0.000000
    12  C    0.000030   0.000000  -0.000002   0.000004  -0.000002   0.000000
    13  O    0.000000   0.000000   0.000000   0.000000   0.000000   0.000000
    14  O    0.000031   0.000000   0.000000   0.000000   0.000000   0.000000
    15  H    0.000001   0.000000   0.000000   0.000000   0.000000   0.000000
    16  C    0.500618  -0.023215  -0.091578   0.018624  -0.000917   0.003902
    17  H   -0.044734   0.004189  -0.009880   0.008666   0.002054   0.000026
    18  H   -0.025324  -0.007069   0.004965   0.000206   0.000002  -0.000027
    19  C    5.605447   0.356497   0.247038  -0.081523  -0.005964  -0.036747
    20  H    0.356497   0.480745  -0.015279   0.002124   0.000031   0.002152
    21  C    0.247038  -0.015279   5.254818  -0.204871   0.047988   0.310332
    22  O   -0.081523   0.002124  -0.204871   9.396258   0.142316  -0.019909
    23  H   -0.005964   0.000031   0.047988   0.142316   0.471384  -0.001239
    24  O   -0.036747   0.002152   0.310332  -0.019909  -0.001239   8.511221
 Mulliken charges:
               1
     1  C    0.024830
     2  H    0.232453
     3  C   -0.117984
     4  H    0.186590
     5  C    0.137405
     6  H    0.161101
     7  C   -0.450377
     8  H    0.248294
     9  H    0.235476
    10  N   -0.715844
    11  H    0.340966
    12  C    0.958272
    13  O   -0.564667
    14  O   -0.602906
    15  H    0.400987
    16  C   -0.370028
    17  H    0.185085
    18  H    0.150357
    19  C   -0.182511
    20  H    0.190317
    21  C    0.480601
    22  O   -0.675007
    23  H    0.403226
    24  O   -0.656636
 Sum of Mulliken charges =   0.00000
 Mulliken charges with hydrogens summed into heavy atoms:
               1
     1  C    0.257283
     3  C    0.068606
     5  C    0.298505
     7  C    0.033393
    10  N   -0.374877
    12  C    0.958272
    13  O   -0.564667
    14  O   -0.201919
    16  C   -0.034587
    19  C    0.007806
    21  C    0.480601
    22  O   -0.271781
    24  O   -0.656636
 Electronic spatial extent (au):  <R**2>=           2808.1236
 Charge=              0.0000 electrons
 Dipole moment (field-independent basis, Debye):
    X=             -2.1028    Y=             -2.2907    Z=             -1.4359  Tot=              3.4251
 Quadrupole moment (field-independent basis, Debye-Ang):
   XX=           -105.0149   YY=            -65.0101   ZZ=            -77.0635
   XY=            -13.8056   XZ=             -5.5365   YZ=              7.1468
 Traceless Quadrupole moment (field-independent basis, Debye-Ang):
   XX=            -22.6521   YY=             17.3527   ZZ=              5.2994
   XY=            -13.8056   XZ=             -5.5365   YZ=              7.1468
 Octapole moment (field-independent basis, Debye-Ang**2):
  XXX=            -42.8917  YYY=              3.1202  ZZZ=             -4.1715  XYY=             -2.9125
  XXY=              2.3427  XXZ=              2.3904  XZZ=            -19.4011  YZZ=             -2.5496
  YYZ=             -2.9605  XYZ=             -5.2855
 Hexadecapole moment (field-independent basis, Debye-Ang**3):
 XXXX=          -3391.5780 YYYY=           -508.2585 ZZZZ=           -236.1763 XXXY=           -184.2797
 XXXZ=           -132.6627 YYYX=            -69.1119 YYYZ=             41.9510 ZZZX=             -8.5793
 ZZZY=             25.9989 XXYY=           -449.1381 XXZZ=           -458.7745 YYZZ=           -130.1392
 XXYZ=             50.9055 YYXZ=            -13.5118 ZZXY=            -14.7470
 N-N= 8.407390798499D+02 E-N=-3.226400634232D+03  KE= 6.548741240246D+02
 No NMR shielding tensors so no spin-rotation constants.
 Leave Link  601 at Mon Nov 13 15:39:29 2017, MaxMem=   402653184 cpu:               5.5 elap:               2.8
 (Enter /n/sw/g16_nehalem/g16/l701.exe)
 ... and contract with generalized density number  0.
 Compute integral first derivatives.
 R6Disp: Adding Grimme-D3(BJ) dispersion energy 1st derivatives to the gradient.
 D1PCM: PCM CHGder 1st derivatives, ID1Alg=3 FixD1E=F DoIter=F DoCFld=F I1PDM=0.
 GePol: Maximum number of non-zero 1st derivatives   =     223
 Leave Link  701 at Mon Nov 13 15:39:41 2017, MaxMem=   402653184 cpu:              22.9 elap:              11.6
 (Enter /n/sw/g16_nehalem/g16/l702.exe)
 L702 exits ... SP integral derivatives will be done elsewhere.
 Leave Link  702 at Mon Nov 13 15:39:41 2017, MaxMem=   402653184 cpu:               0.5 elap:               0.2
 (Enter /n/sw/g16_nehalem/g16/l703.exe)
 Integral derivatives from FoFJK, PRISM(SPDF).
 Compute integral first derivatives, UseDBF=F ICtDFT=           0.
 Calling FoFJK, ICntrl=      2127 FMM=F ISym2X=0 I1Cent= 0 IOpClX= 0 NMat=1 NMatS=1 NMatT=0.
 FoFJK:  IHMeth= 1 ICntrl=    2127 DoSepK=F KAlg= 0 I1Cent=           0 FoldK=F
 IRaf=         0 NMat=       1 IRICut=       1 DoRegI=T DoRafI=F ISym2E= 0 IDoP0=0 IntGTp=1.
 FoFCou: FMM=F IPFlag=           0 FMFlag=      100000 FMFlg1=         800
         NFxFlg=           0 DoJE=F BraDBF=F KetDBF=F FulRan=T
         wScrn=  0.000000 ICntrl=      2127 IOpCl=  0 I1Cent=           0 NGrid=           0
         NMat0=    1 NMatS0=      1 NMatT0=    0 NMatD0=    1 NMtDS0=    0 NMtDT0=    0
 Symmetry not used in FoFCou.
 Leave Link  703 at Mon Nov 13 15:40:04 2017, MaxMem=   402653184 cpu:              45.9 elap:              23.0
 (Enter /n/sw/g16_nehalem/g16/l716.exe)
 Dipole        =-8.27315144D-01-9.01230212D-01-5.64928653D-01
 ***** Axes restored to original set *****
 -------------------------------------------------------------------
 Center     Atomic                   Forces (Hartrees/Bohr)
 Number     Number              X              Y              Z
 -------------------------------------------------------------------
      1        6           0.003530019   -0.042659530    0.035213235
      2        1          -0.011740315    0.011936828    0.001662875
      3        6          -0.046267315    0.040346450    0.049067677
      4        1          -0.001368851   -0.012170167    0.006076362
      5        6          -0.156155055    0.001087372    0.136408477
      6        1           0.000824262    0.024939627    0.114146128
      7        6          -0.023847426    0.142165311    0.064820959
      8        1          -0.010264641    0.011911637    0.026957138
      9        1          -0.005212760    0.059207261    0.079920303
     10        7           0.025968503    0.089063408   -0.014587034
     11        1          -0.009694878   -0.024470334   -0.012237584
     12        6          -0.066175997   -0.005040626   -0.030291343
     13        8           0.056742601    0.011817583    0.018426879
     14        8           0.035988355   -0.060667030    0.035435644
     15        1          -0.030869200    0.006877684   -0.010765519
     16        6           0.029800110    0.014362543   -0.020208820
     17        1          -0.002397583   -0.007908617   -0.013002153
     18        1          -0.011395819    0.006596739   -0.006332975
     19        6          -0.006663108   -0.067823569   -0.076369650
     20        1           0.012385211    0.009511087    0.003135812
     21        6           0.008169621    0.134817141   -0.111742391
     22        8           0.068866012   -0.204841650   -0.193816964
     23        1           0.041418338   -0.082508279   -0.066917885
     24        8           0.098359915   -0.056550871   -0.014999171
 -------------------------------------------------------------------
 Cartesian Forces:  Max     0.204841650 RMS     0.062588639
 Leave Link  716 at Mon Nov 13 15:40:04 2017, MaxMem=   402653184 cpu:               0.5 elap:               0.3
 (Enter /n/sw/g16_nehalem/g16/l103.exe)

 GradGradGradGradGradGradGradGradGradGradGradGradGradGradGradGradGradGrad
 Berny optimization.
 FormGI is forming the generalized inverse of G from B-inverse, IUseBI=4.
 Internal  Forces:  Max     0.335621643 RMS     0.047415409
 Search for a local minimum.
 Step number   1 out of a maximum of  135
 All quantities printed in internal units (Hartrees-Bohrs-Radians)
 RMS Force = .46109D-01 SwitMx=.10000D-02 MixMth= 1
 Mixed Optimization -- RFO/linear search
 Second derivative matrix not updated -- first step.
 ITU=  0
     Eigenvalues ---    0.00237   0.00237   0.00766   0.00766   0.00941
     Eigenvalues ---    0.01219   0.01219   0.01295   0.01556   0.01727
     Eigenvalues ---    0.02681   0.02681   0.02681   0.02769   0.03610
     Eigenvalues ---    0.03937   0.04029   0.04707   0.05056   0.05566
     Eigenvalues ---    0.07049   0.08365   0.09769   0.10300   0.10413
     Eigenvalues ---    0.11845   0.12377   0.12965   0.16000   0.16000
     Eigenvalues ---    0.16000   0.16000   0.16000   0.16000   0.17731
     Eigenvalues ---    0.21586   0.22000   0.22000   0.22000   0.23485
     Eigenvalues ---    0.25000   0.25000   0.27817   0.28519   0.31145
     Eigenvalues ---    0.35740   0.35740   0.37230   0.37230   0.37230
     Eigenvalues ---    0.37230   0.37230   0.37230   0.37230   0.37230
     Eigenvalues ---    0.40989   0.46695   0.47688   0.47718   0.53930
     Eigenvalues ---    0.53930   0.55473   0.57139   0.80209   0.80209
     Eigenvalues --- 1000.000001000.000001000.000001000.000001000.00000
     Eigenvalues --- 1000.000001000.000001000.000001000.000001000.00000
     Eigenvalues --- 1000.000001000.000001000.000001000.000001000.00000
     Eigenvalues --- 1000.000001000.000001000.000001000.000001000.00000
     Eigenvalues --- 1000.000001000.000001000.000001000.000001000.00000
     Eigenvalues --- 1000.000001000.000001000.000001000.000001000.00000
     Eigenvalues --- 1000.000001000.000001000.000001000.000001000.00000
     Eigenvalues --- 1000.000001000.000001000.000001000.000001000.00000
     Eigenvalues --- 1000.000001000.000001000.000001000.000001000.00000
     Eigenvalues --- 1000.000001000.000001000.000001000.000001000.00000
     Eigenvalues --- 1000.000001000.000001000.000001000.000001000.00000
     Eigenvalues --- 1000.000001000.000001000.000001000.000001000.00000
 RFO step:  Lambda=-3.64007762D-01 EMin= 2.36824217D-03
 Linear search not attempted -- first point.
 Maximum step size (   0.300) exceeded in Quadratic search.
    -- Step size scaled by   0.504
 Iteration  1 RMS(Cart)=  0.10596805 RMS(Int)=  0.00245603
 Iteration  2 RMS(Cart)=  0.00355928 RMS(Int)=  0.00041931
 Iteration  3 RMS(Cart)=  0.00000390 RMS(Int)=  0.00041930
 Iteration  4 RMS(Cart)=  0.00000000 RMS(Int)=  0.00041930
 Iteration  1 RMS(Cart)=  0.00004455 RMS(Int)=  0.00001329
 Iteration  2 RMS(Cart)=  0.00001267 RMS(Int)=  0.00001458
 Iteration  3 RMS(Cart)=  0.00000360 RMS(Int)=  0.00001536
 Iteration  4 RMS(Cart)=  0.00000102 RMS(Int)=  0.00001560
 Iteration  5 RMS(Cart)=  0.00000029 RMS(Int)=  0.00001568
 ITry= 1 IFail=0 DXMaxC= 3.65D-01 DCOld= 1.00D+10 DXMaxT= 3.00D-01 DXLimC= 3.00D+00 Rises=F
 Variable       Old X    -DE/DX   Delta X   Delta X   Delta X     New X
                                 (Linear)    (Quad)   (Total)
    R1        2.02201   0.00763   0.00000   0.00522   0.00522   2.02723
    R2        2.56096  -0.02058   0.00000  -0.01148  -0.01148   2.54948
    R3        2.77790  -0.01527   0.00000  -0.01067  -0.01067   2.76723
    R4        2.02201   0.01343   0.00000   0.00920   0.00920   2.03120
    R5        2.91018   0.02388   0.00000   0.01854   0.01854   2.92872
    R6        2.02201   0.03961   0.00000   0.02711   0.02711   2.04912
    R7        2.56096   0.14069   0.00000   0.08620   0.08630   2.64726
    R8        2.45836   0.33562   0.00000   0.17714   0.17821   2.63657
    R9        2.02201   0.00117   0.00000   0.00080   0.00080   2.02281
   R10        2.02201   0.02769   0.00000   0.01895   0.01895   2.04096
   R11        3.96842   0.11144   0.00000   0.00000   0.00000   3.96842
   R12        2.87342   0.17300   0.00000   0.09553   0.09510   2.96851
   R13        1.88973   0.02668   0.00000   0.01599   0.01599   1.90572
   R14        2.77790  -0.03598   0.00000  -0.02513  -0.02513   2.75276
   R15        2.37803  -0.06080   0.00000  -0.02628  -0.02628   2.35175
   R16        2.70231  -0.05125   0.00000  -0.03338  -0.03338   2.66893
   R17        1.81414   0.03011   0.00000   0.01651   0.01651   1.83065
   R18        2.02201   0.00248   0.00000   0.00169   0.00169   2.02370
   R19        2.02201   0.01325   0.00000   0.00907   0.00907   2.03108
   R20        2.56096  -0.00494   0.00000  -0.00276  -0.00276   2.55820
   R21        2.02201   0.01173   0.00000   0.00803   0.00803   2.03003
   R22        2.91018  -0.02726   0.00000  -0.03994  -0.03968   2.87050
   R23        2.78455   0.12241   0.00000   0.07640   0.07605   2.86060
   R24        2.37803   0.06288   0.00000   0.02718   0.02718   2.40521
   R25        1.90055   0.01773   0.00000   0.01075   0.01075   1.91131
    A1        2.09836   0.00912   0.00000   0.00904   0.00904   2.10740
    A2        2.09241  -0.01458   0.00000  -0.01376  -0.01376   2.07866
    A3        2.09241   0.00546   0.00000   0.00472   0.00472   2.09713
    A4        2.09836  -0.00768   0.00000  -0.00640  -0.00640   2.09196
    A5        2.09241   0.01999   0.00000   0.01725   0.01724   2.10966
    A6        2.09241  -0.01231   0.00000  -0.01085  -0.01085   2.08156
    A7        2.09241  -0.00949   0.00000  -0.00948  -0.01108   2.08133
    A8        2.09836   0.02755   0.00000   0.02604   0.02542   2.12378
    A9        1.57089   0.05117   0.00000   0.04301   0.04254   1.61343
   A10        2.09241  -0.01805   0.00000  -0.01656  -0.01703   2.07538
   A11        1.53810   0.03098   0.00000   0.03663   0.03680   1.57490
   A12        1.60328  -0.03151   0.00000  -0.01163  -0.01144   1.59184
   A13        2.09836   0.00558   0.00000   0.00445   0.00367   2.10203
   A14        2.09241   0.00378   0.00000   0.00434   0.00344   2.09586
   A15        1.52795   0.02587   0.00000   0.01045   0.01024   1.53819
   A16        2.09241  -0.00936   0.00000  -0.00879  -0.00960   2.08281
   A17        1.97238  -0.00986   0.00000   0.00295   0.00307   1.97545
   A18        1.21403   0.03814   0.00000   0.04997   0.05006   1.26409
   A19        1.91063   0.00074   0.00000   0.00306   0.00307   1.91371
   A20        1.91063   0.02911   0.00000   0.02492   0.02489   1.93553
   A21        1.91063  -0.01240   0.00000  -0.01067  -0.01077   1.89987
   A22        2.09836   0.01595   0.00000   0.01309   0.01309   2.11144
   A23        2.09241  -0.03534   0.00000  -0.02901  -0.02901   2.06341
   A24        2.09241   0.01939   0.00000   0.01592   0.01591   2.10833
   A25        1.91114  -0.02626   0.00000  -0.02525  -0.02525   1.88588
   A26        2.09241  -0.00881   0.00000  -0.00847  -0.00848   2.08393
   A27        2.09836   0.00972   0.00000   0.00934   0.00933   2.10769
   A28        2.09241  -0.00091   0.00000  -0.00087  -0.00088   2.09153
   A29        2.09836  -0.02617   0.00000  -0.02152  -0.02154   2.07681
   A30        2.09241   0.07392   0.00000   0.06379   0.06376   2.15618
   A31        2.09241  -0.04774   0.00000  -0.04227  -0.04229   2.05012
   A32        1.51233   0.00590   0.00000  -0.01782  -0.01809   1.49424
   A33        1.38225   0.04383   0.00000   0.02652   0.02639   1.40864
   A34        1.77846   0.00514   0.00000   0.03092   0.03224   1.81069
   A35        1.78542   0.01639   0.00000   0.01637   0.01675   1.80217
   A36        2.09836   0.00619   0.00000   0.01011   0.00994   2.10830
   A37        2.39941  -0.02258   0.00000  -0.02649  -0.02809   2.37131
   A38        1.59910  -0.02771   0.00000  -0.01702  -0.01682   1.58228
   A39        1.30478   0.07914   0.00000   0.08883   0.08818   1.39296
   A40        2.09440   0.00887   0.00000   0.00987   0.00951   2.10390
    D1        3.14159  -0.00803   0.00000  -0.01042  -0.01042   3.13117
    D2        0.00000  -0.00496   0.00000  -0.00631  -0.00630  -0.00630
    D3        0.00000  -0.00836   0.00000  -0.01086  -0.01087  -0.01087
    D4        3.14159  -0.00529   0.00000  -0.00675  -0.00675   3.13484
    D5        2.09440   0.00323   0.00000   0.00433   0.00439   2.09878
    D6        0.00000   0.00014   0.00000   0.00026   0.00021   0.00021
    D7       -1.04720   0.00357   0.00000   0.00477   0.00482  -1.04237
    D8        3.14159   0.00048   0.00000   0.00071   0.00065  -3.14095
    D9       -3.14159  -0.04948   0.00000  -0.05967  -0.05947   3.08213
   D10        0.00000   0.00987   0.00000   0.01971   0.02023   0.02023
   D11       -1.60845   0.01590   0.00000   0.00752   0.00679  -1.60166
   D12        0.00000  -0.04642   0.00000  -0.05558  -0.05537  -0.05537
   D13        3.14159   0.01293   0.00000   0.02380   0.02433  -3.11726
   D14        1.53314   0.01896   0.00000   0.01162   0.01088   1.54403
   D15        0.00000  -0.01181   0.00000  -0.01779  -0.01783  -0.01783
   D16        3.14159  -0.07902   0.00000  -0.09408  -0.09403   3.04756
   D17       -2.01288  -0.01761   0.00000  -0.02881  -0.02880  -2.04168
   D18        3.14159   0.04754   0.00000   0.06159   0.06160  -3.07999
   D19        0.00000  -0.01967   0.00000  -0.01470  -0.01460  -0.01460
   D20        1.12871   0.04174   0.00000   0.05057   0.05063   1.17934
   D21        1.58984   0.03027   0.00000   0.02637   0.02625   1.61609
   D22       -1.55175  -0.03693   0.00000  -0.04992  -0.04995  -1.60170
   D23       -0.42304   0.02448   0.00000   0.01535   0.01528  -0.40776
   D24        2.53588   0.01123   0.00000   0.01422   0.01356   2.54944
   D25       -1.64048   0.01860   0.00000   0.01818   0.01775  -1.62273
   D26       -1.65459  -0.00078   0.00000   0.00242   0.00289  -1.65170
   D27        0.45223   0.00660   0.00000   0.00639   0.00708   0.45931
   D28        0.43721  -0.01766   0.00000  -0.01324  -0.01331   0.42391
   D29        2.54403  -0.01029   0.00000  -0.00927  -0.00911   2.53492
   D30        2.17890   0.02318   0.00000   0.02003   0.01934   2.19824
   D31        0.37770   0.01224   0.00000   0.00232   0.00160   0.37931
   D32       -2.00639   0.03103   0.00000   0.02834   0.02728  -1.97912
   D33        0.05040   0.00685   0.00000   0.00952   0.00965   0.06006
   D34       -1.75079  -0.00408   0.00000  -0.00819  -0.00808  -1.75888
   D35        2.14830   0.01471   0.00000   0.01783   0.01759   2.16589
   D36       -1.95324   0.00383   0.00000   0.00511   0.00526  -1.94797
   D37        2.52875  -0.00710   0.00000  -0.01260  -0.01247   2.51628
   D38        0.14466   0.01169   0.00000   0.01342   0.01320   0.15786
   D39        3.05208   0.00475   0.00000   0.00511   0.00507   3.05715
   D40       -0.08952   0.00213   0.00000   0.00158   0.00154  -0.08797
   D41        0.95768  -0.00639   0.00000  -0.00736  -0.00732   0.95036
   D42       -2.18391  -0.00901   0.00000  -0.01089  -0.01085  -2.19476
   D43       -3.02216   0.00109   0.00000   0.00147   0.00147  -3.02068
   D44        0.11944  -0.00152   0.00000  -0.00205  -0.00205   0.11739
   D45        3.14159  -0.01556   0.00000  -0.02031  -0.02035   3.12124
   D46        0.00000  -0.00564   0.00000  -0.00703  -0.00699  -0.00699
   D47        0.00000  -0.00912   0.00000  -0.01201  -0.01206  -0.01206
   D48        3.14159   0.00079   0.00000   0.00127   0.00131  -3.14028
   D49       -1.36442  -0.03071   0.00000  -0.02445  -0.02381  -1.38823
   D50        0.00000   0.01405   0.00000  -0.00308  -0.00292  -0.00292
   D51        3.14159  -0.04049   0.00000  -0.05054  -0.05125   3.09034
   D52        1.77718  -0.02083   0.00000  -0.01122  -0.01063   1.76654
   D53        3.14159   0.02393   0.00000   0.01016   0.01026  -3.13134
   D54        0.00000  -0.03061   0.00000  -0.03730  -0.03808  -0.03808
   D55       -0.39410   0.02096   0.00000   0.01355   0.01336  -0.38074
   D56       -1.67345  -0.05339   0.00000  -0.07828  -0.07811  -1.75157
   D57       -1.86224   0.00783   0.00000   0.02936   0.02915  -1.83309
   D58        3.14159  -0.06651   0.00000  -0.06247  -0.06233   3.07926
   D59        1.27935   0.07756   0.00000   0.09003   0.08878   1.36813
   D60        0.00000   0.00321   0.00000  -0.00180  -0.00270  -0.00270
         Item               Value     Threshold  Converged?
 Maximum Force            0.330522     0.000450     NO 
 RMS     Force            0.046109     0.000300     NO 
 Maximum Displacement     0.364621     0.001800     NO 
 RMS     Displacement     0.105453     0.001200     NO 
 Predicted change in Energy=-1.635413D-01
 Lowest energy point so far.  Saving SCF results.
 GradGradGradGradGradGradGradGradGradGradGradGradGradGradGradGradGradGrad

 Leave Link  103 at Mon Nov 13 15:40:33 2017, MaxMem=   402653184 cpu:              52.3 elap:              28.9
 (Enter /n/sw/g16_nehalem/g16/l202.exe)
                          Input orientation:                          
 ---------------------------------------------------------------------
 Center     Atomic      Atomic             Coordinates (Angstroms)
 Number     Number       Type             X           Y           Z
 ---------------------------------------------------------------------
      1          6           0       -5.837827    2.109933   -1.484881
      2          1           0       -5.595531    3.080612   -1.872043
      3          6           0       -4.909204    1.372573   -0.841378
      4          1           0       -5.170079    0.405791   -0.450721
      5          6           0       -3.465337    1.902411   -0.650493
      6          1           0       -2.755464    1.312696   -0.081172
      7          6           0       -3.078270    3.166618   -1.113525
      8          1           0       -3.776975    3.792636   -1.629005
      9          1           0       -2.091845    3.545996   -0.891034
     10          7           0       -7.195165    1.590357   -1.663800
     11          1           0       -7.162268    0.729048   -2.187306
     12          6           0       -8.027000    2.546384   -2.382160
     13          8           0       -9.191267    2.259230   -2.715015
     14          8           0       -7.478640    3.811497   -2.687917
     15          1           0       -8.182979    4.361579   -3.061778
     16          6           0       -3.922469    2.884448   -3.740535
     17          1           0       -4.441514    2.006597   -3.413750
     18          1           0       -4.345232    3.486336   -4.524242
     19          6           0       -2.739289    3.236404   -3.184810
     20          1           0       -2.233788    4.112211   -3.547353
     21          6           0       -2.065521    2.447554   -2.075251
     22          8           0       -3.025419    1.302820   -1.830991
     23          1           0       -2.799183    0.575346   -1.165732
     24          8           0       -0.925497    2.794927   -1.628427
[...]
 -0.00018058,0.00036149,0.00055740,-0.00085177,-0.00012158,0.00008397,0
 .00013619,0.57817240,-0.00077255,-0.00020030,0.00087005,-0.00008136,-0
 .00068748,-0.00042333,-0.00063298,-0.00020316,0.00127606,-0.00005085,-
 0.00007703,-0.00017918,-0.00095184,0.00071440,0.00133453,0.00013575,-0
 .00021220,-0.00028877,-0.00290620,-0.00161103,-0.00163567,-0.00078793,
 0.00055736,0.00090992,0.00076435,0.00050889,0.00064492,0.00032046,0.00
 011254,0.00028482,-0.00000639,0.00000253,-0.00004369,0.00061117,-0.000
 14925,-0.00018489,-0.00019872,0.00001372,-0.00002383,-0.00008743,0.000
 49803,0.00007604,-0.00004580,-0.00009741,0.00004670,-0.02404210,0.6624
 6327,0.00153828,0.00032291,-0.00094643,0.00042960,0.00002406,-0.000557
 77,0.00076050,-0.00002658,-0.00069399,-0.00004362,-0.00001041,0.000096
 12,-0.00025204,0.00055252,-0.00084557,0.00013904,-0.00011930,0.0000404
 6,-0.00567131,0.00061932,-0.00447503,-0.00045172,0.00033537,0.00056776
 ,0.00048568,0.00061065,-0.00028801,-0.00038302,0.00012837,-0.00045858,
 -0.00004483,-0.00002726,0.00002037,-0.00110534,-0.00153178,0.00084430,
 0.00055042,0.00041564,-0.00000043,0.00146025,0.00020714,-0.00099546,0.
 00006105,0.00014986,-0.00030063,0.26429507,0.21556651,0.37271155,-0.00
 023268,0.00027787,-0.00032499,-0.00008368,-0.00000503,0.00001605,0.000
 17387,-0.00024087,-0.00005602,-0.00001763,-0.00002333,0.00010321,0.000
 47672,-0.00030835,0.00025768,-0.00007814,0.00006456,0.00005223,0.00061
 726,-0.00012632,0.00027658,-0.00028325,0.00041001,-0.00003585,-0.00026
 991,0.00012955,0.00027896,0.00021548,-0.00017336,0.00007520,-0.0000095
 7,0.00000770,0.00005329,0.00005554,0.00073425,-0.00038851,-0.00003198,
 -0.00018625,0.00005098,-0.00044916,-0.00023335,0.00043514,0.00003677,-
 0.00001038,-0.00001829,-0.08615520,0.08962602,0.00597177,0.08002436,0.
 00018593,-0.00008760,0.00011740,-0.00004234,-0.00000422,0.00007558,-0.
 00015419,0.00026911,0.00017507,0.00001007,-0.00000027,-0.00001039,-0.0
 0012668,-0.00002198,-0.00069764,0.00002178,-0.00000084,-0.00000475,0.0
 0072686,0.00001597,0.00005887,-0.00020332,0.00026220,-0.00007638,-0.00
 016081,0.00004687,0.00021318,-0.00017400,0.00007670,-0.00010448,0.0000
 0373,0.00001260,0.00000115,-0.00004618,-0.00023203,0.00014826,0.000004
 64,0.00004673,-0.00002498,0.00011803,0.00009241,-0.00008100,-0.0000134
 1,-0.00000332,-0.00001315,0.08696655,-0.30067258,-0.04928948,-0.094558
 17,0.32049444,0.00038344,-0.00032763,0.00019778,0.00001547,-0.00005351
 ,-0.00009835,-0.00002635,0.00034773,-0.00026415,0.00002946,-0.00000248
 ,-0.00010820,0.00094717,-0.00176744,-0.00054157,-0.00020390,0.00037590
 ,0.00038881,-0.00110293,-0.00007951,-0.00101733,0.00024253,-0.00032738
 ,0.00030383,0.00042902,-0.00024671,-0.00058580,-0.00049297,0.00014925,
 -0.00014584,0.00000297,0.00003584,-0.00000351,0.00047189,-0.00019430,0
 .00024386,-0.00032141,-0.00001648,-0.00011942,-0.00014615,0.00013177,0
 .00003767,0.00000488,-0.00004707,0.00003143,0.00552431,-0.03860121,-0.
 04756786,-0.00243931,0.05475179,0.04267815,0.00025218,-0.00006169,0.00
 041752,0.00005902,-0.00002759,-0.00001928,-0.00009763,0.00017310,0.000
 02411,0.00003706,0.00000962,0.00001484,-0.00025794,-0.00011616,0.00015
 964,0.00007705,-0.00000260,-0.00002671,-0.00156318,0.00077330,-0.00139
 954,0.00004879,-0.00024830,0.00014228,0.00028556,0.00002891,-0.0007451
 9,-0.00001407,0.00017809,-0.00023456,-0.00002544,-0.00001098,-0.000020
 16,-0.00087843,-0.00160559,0.00097444,0.00041423,0.00034070,-0.0000510
 1,-0.00017699,0.00082855,-0.00048384,-0.00009463,0.00025796,-0.0002592
 6,-0.27566943,0.06822006,-0.10332369,-0.00444863,-0.00039279,-0.003556
 74,0.28937045,-0.00015332,0.00015818,0.00005567,0.00002424,0.00016085,
 -0.00022925,0.00025111,-0.00009664,-0.00021010,0.00003833,0.00000040,0
 .00002261,0.00024294,-0.00055512,-0.00049931,-0.00003862,0.00019008,0.
 00007397,-0.00111391,0.00085231,-0.00117647,0.00006705,-0.00019176,0.0
 0015914,0.00020488,0.00001109,-0.00055988,0.00012563,-0.00037289,0.000
 10941,-0.00001146,-0.00000071,0.00005747,-0.00025628,0.00158246,-0.000
 31969,-0.00016690,-0.00039995,0.00002663,-0.00008407,-0.00158522,0.000
 38414,0.00009211,-0.00008081,0.00002259,0.07340278,-0.07921331,0.02283
 341,0.02358842,-0.00278559,0.00998525,-0.07406176,0.07409106,-0.000211
 75,0.00044662,-0.00063951,-0.00007908,-0.00031723,-0.00048785,-0.00014
 008,-0.00008737,0.00023385,0.00008572,-0.00004328,-0.00006423,-0.00024
 862,-0.00036028,-0.00022844,0.00012301,0.00016298,-0.00003126,0.003322
 90,0.00126339,0.00155882,-0.00006551,0.00029332,-0.00029249,-0.0004348
 8,-0.00006625,0.00111252,0.00038804,-0.00018348,0.00042783,0.00004606,
 0.00000572,-0.00003550,0.00144444,0.00232548,-0.00126780,-0.00080214,-
 0.00065457,-0.00000068,-0.00137474,-0.00074611,0.00061325,-0.00019510,
 -0.00021974,0.00065712,-0.09256556,0.02220037,-0.07882637,0.00429193,-
 0.00178190,0.00498542,0.11261429,-0.02002812,0.07858766,-0.00140843,-0
 .00073469,0.00239719,-0.00078353,-0.00097120,-0.00000895,-0.00139232,0
 .00013326,0.00120119,0.00013198,-0.00003074,-0.00002875,-0.00125820,-0
 .00166722,-0.00196166,0.00037755,0.00060852,-0.00034719,0.01928547,0.0
 0649236,-0.01468253,-0.00034881,0.00177284,-0.00028786,-0.00128459,-0.
 00105506,0.00413141,0.00001776,-0.00019578,0.00029843,-0.00005716,0.00
 001627,-0.00006486,0.00072673,0.00036667,-0.00028647,-0.00041083,-0.00
 013264,-0.00001430,-0.00050733,-0.00002209,0.00047793,0.00006619,-0.00
 011441,0.00000932,-0.21131656,-0.11899546,-0.14154617,0.01217527,0.008
 80670,-0.00015333,-0.01290600,-0.02368114,-0.02107190,0.52578660,-0.00
 034285,-0.00066362,0.00047032,0.00043475,0.00078572,-0.00019766,-0.000
 57045,0.00022589,0.00073985,0.00017322,0.00006852,0.00003470,0.0033739
 6,-0.00207521,-0.00349680,0.00041090,0.00120429,-0.00018209,0.00957617
 ,0.03187016,0.01978473,0.00191218,-0.00096101,-0.00014211,-0.00173287,
 0.00025457,0.00201958,-0.00003882,-0.00005161,-0.00006606,-0.00003426,
 0.00003216,0.00003716,-0.00018451,-0.00012026,0.00016719,0.00005603,0.
 00003407,-0.00001214,0.00025638,-0.00022082,-0.00028334,0.00001811,0.0
 0006226,0.00000602,-0.12984214,-0.27227619,-0.17581212,-0.01841887,-0.
 01744208,-0.01996035,0.00877800,0.00965999,-0.00116173,-0.03113785,0.6
 1749446,0.00113248,0.00024012,-0.00235854,0.00088067,0.00100987,-0.000
 28989,0.00111319,0.00013867,-0.00148565,-0.00008738,0.00008421,0.00049
 164,-0.00124170,-0.00043277,-0.00204567,0.00019415,-0.00005956,0.00053
 938,-0.01434161,0.02186205,-0.08100953,-0.00293550,0.00064009,-0.01189
 537,-0.00201417,-0.00084290,-0.01026567,0.00027787,-0.00021244,-0.0000
 0213,0.00005490,0.00000067,0.00001843,-0.00026478,0.00074780,-0.000473
 32,0.00019044,-0.00014040,0.00015150,-0.00010207,-0.00046675,0.0002112
 0,0.00008385,0.00004704,-0.00004746,-0.15765633,-0.17644521,-0.2184701
 2,-0.00375484,-0.00337010,-0.00157039,-0.00406016,-0.01048375,-0.00948
 287,0.28167313,0.18488652,0.51174511,-0.00011563,-0.00008731,-0.000273
 55,-0.00030758,-0.00031696,0.00056851,0.00046729,-0.00007039,-0.000136
 78,-0.00005206,0.00001462,-0.00010151,0.00016961,-0.00029393,0.0013197
 1,-0.00020613,-0.00023182,0.00004759,0.00024735,-0.00245954,0.00139868
 ,0.00182813,-0.00076563,0.00003033,0.00023048,-0.00042610,-0.00009409,
 0.00000420,0.00012292,-0.00005911,0.00000405,0.00001044,0.00004473,-0.
 00027552,-0.00044590,0.00019716,0.00026254,0.00016173,-0.00000275,0.00
 047795,0.00034307,-0.00020545,0.00000738,0.00005464,-0.00003275,0.0097
 3649,-0.01756787,-0.00669132,0.00187868,-0.00012897,-0.00613207,-0.000
 90566,-0.00187653,0.00412327,-0.08426808,0.10142309,0.00636757,0.08608
 605,0.00016400,-0.00041125,-0.00030613,-0.00058396,0.00007664,0.000627
 97,0.00026699,-0.00001414,-0.00003184,-0.00004205,0.00007674,-0.000046
 18,-0.00006391,-0.00016150,-0.00020173,-0.00003815,0.00008210,-0.00004
 044,0.00109310,0.00044101,-0.00011247,-0.00060293,0.00129837,0.0006105
 1,-0.00038729,0.00005422,0.00003876,0.00006706,0.00027532,-0.00008936,
 0.00007520,-0.00000148,0.00003782,-0.00028940,-0.00010795,-0.00006232,
 0.00022337,0.00005657,0.00005159,0.00018507,0.00007488,0.00002390,0.00
 002365,0.00004960,-0.00002741,0.00974632,-0.01871014,-0.00562367,0.000
 18000,0.00103435,-0.00527744,-0.00153531,0.00019951,0.00332325,0.09395
 566,-0.27892846,-0.04109322,-0.10383100,0.29918697,0.00011115,0.000065
 66,0.00041350,0.00041345,0.00007329,-0.00026561,-0.00050385,0.00019164
 ,0.00024336,0.00005484,-0.00001313,0.00004182,-0.00124889,-0.00069083,
 -0.00062729,0.00012884,0.00015041,-0.00000457,-0.00028285,0.00151563,-
 0.00596557,-0.00208983,0.00363456,-0.00519352,0.00027742,0.00021615,0.
 00023645,-0.00016797,-0.00004835,-0.00005838,-0.00003241,-0.00001012,-
 0.00005550,0.00018790,-0.00031145,0.00025206,-0.00011233,0.00006686,-0
 .00007120,0.00007279,0.00023710,-0.00018263,-0.00005234,-0.00005592,0.
 00003822,0.00628046,-0.02458260,0.00051165,-0.00625182,-0.00419600,0.0
 0490037,0.00335226,0.00295681,-0.00446807,0.00837602,-0.04249879,-0.05
 214384,-0.00288444,0.05176215,0.05798098,-0.00256862,0.00039907,-0.000
 94068,-0.00036888,0.00015336,0.00055387,0.00122313,-0.00035658,-0.0010
 2043,0.00036028,0.00010884,-0.00044994,-0.01229936,-0.02033074,0.01442
 174,0.00016720,0.00166942,0.00018100,-0.08474085,0.01360048,0.05673753
 ,-0.01377651,-0.00499092,0.01894615,0.01062230,-0.00236480,-0.02806995
 ,0.00109951,-0.00026290,0.00032374,-0.00008172,-0.00004772,0.00018914,
 -0.00186791,0.00008333,-0.00026645,0.00120985,0.00017231,0.00025516,0.
 00084399,-0.00018828,-0.00034533,-0.00007001,0.00019461,-0.00007257,-0
 .01286419,0.00386261,-0.02025601,-0.00230750,-0.00001427,0.00774876,0.
 00690884,0.00470258,-0.00812743,-0.20591331,0.03415848,-0.10005768,-0.
 01258847,0.00169660,-0.00398914,0.99170158,0.00048496,-0.00038684,0.00
 073274,0.00004818,0.00002355,-0.00039599,0.00107300,-0.00224106,0.0007
 7163,-0.00094151,-0.00023524,-0.00008331,-0.02529365,0.00602000,0.0404
 0685,-0.00210168,-0.00633275,-0.00031775,-0.00166176,-0.08911573,0.011
 61683,0.00953895,0.00203562,-0.02195821,0.00384470,0.00175897,-0.00498
 719,0.00010851,0.00014043,0.00021752,0.00008404,0.00000185,-0.00002068
 ,0.00024959,0.00030241,-0.00029864,-0.00010278,-0.00008667,0.00005302,
 -0.00029559,-0.00000567,0.00031799,0.00003537,-0.00004685,-0.00003509,
 -0.02244501,0.01429637,-0.00641721,-0.00230593,-0.00064322,-0.00004063
 ,-0.00131742,-0.00179338,-0.00648481,0.04605151,-0.10520758,0.01984245
 ,0.02784296,-0.00355493,0.01098513,-0.22212325,0.30907426,0.00228760,-
 0.00041406,0.00001264,-0.00013440,-0.00012418,0.00108816,0.00029541,-0
 .00384835,-0.00025306,-0.00196382,-0.00038165,0.00020003,0.00895784,0.
 03168179,-0.00801535,-0.00095446,-0.00300926,0.00151685,0.04079587,-0.
 00878746,-0.20670981,-0.00235612,0.00141843,0.00582438,0.01640588,0.00
 494964,-0.03101968,-0.00278784,0.00079798,-0.00158743,0.00004944,0.000
 16353,0.00004445,0.00124471,-0.00237932,0.00211273,-0.00101241,0.00036
 510,-0.00066753,0.00044001,0.00110760,-0.00089461,-0.00013771,-0.00012
 912,0.00016039,-0.02843785,-0.00178421,-0.01955569,0.00197578,0.002989
 16,-0.00382308,-0.00449594,-0.00510667,0.01020535,-0.10259460,0.031339
 41,-0.14172254,0.00627966,-0.00527197,0.00462399,-0.05667385,-0.006167
 32,0.51265933,0.00093867,-0.00220279,0.00376293,-0.00018607,0.00057457
 ,0.00160500,-0.03648255,0.03198394,0.02186885,0.00276302,0.00043694,0.
 00015002,-0.10298662,0.04320868,0.04677671,0.00317352,0.00254708,0.005
 42637,0.00704928,0.00317223,-0.00571832,-0.00034598,-0.00065774,-0.000
 37573,-0.00002317,-0.00044446,0.00054552,-0.00382508,0.00124120,-0.004
 95812,-0.00004110,0.00044217,0.00017393,0.00203250,-0.00347249,0.00146
 666,-0.00188629,0.00058630,-0.00062812,0.00017601,0.00105787,-0.000693
 10,-0.00004562,-0.00015858,0.00016213,0.00012046,0.00008843,-0.0006436
 9,-0.00140138,0.00057147,-0.00069381,0.00012110,0.00000133,0.00013021,
 0.00045583,0.00017990,-0.00004771,-0.00009618,-0.00026780,0.00027429,-
 0.00827903,0.00627036,0.00433254,0.54440887,-0.00108192,0.00120945,-0.
 00106057,-0.00040099,0.00025495,-0.00026136,0.00967592,-0.00090928,-0.
 00081429,0.00075035,0.00122293,0.00072151,0.01014920,-0.12049226,-0.06
 662012,0.00462580,-0.00186351,-0.00985772,0.01716453,-0.03338977,-0.01
 696527,-0.00362124,-0.00687895,-0.00090508,-0.00125281,-0.00123039,-0.
 00062100,0.00046168,0.00009346,0.00018172,0.00005030,-0.00008603,0.000
 04629,-0.00050690,-0.00011034,-0.00017634,0.00034305,0.00009297,0.0001
 2938,0.00023288,0.00008481,-0.00003463,-0.00002194,0.00001361,-0.00003
 031,0.00034563,-0.00041966,-0.00009390,0.00048560,-0.00101486,0.001300
 33,0.00015156,-0.00001775,0.00003312,-0.00002779,-0.00049172,-0.000844
 27,-0.00002029,0.00017814,0.00023338,0.00101837,-0.00076947,-0.0043193
 9,-0.00218128,0.20139042,-0.00182874,0.00130731,-0.00141613,0.00006855
 ,0.00003752,0.00019086,0.00660266,-0.00125383,0.00709770,-0.00068845,0
 .00008122,-0.00000352,0.00781423,-0.05655200,-0.12433832,0.02216241,-0
 .03401071,-0.02586001,-0.00270875,-0.01037754,0.00806042,-0.00075042,-
 0.00024303,0.00013346,0.00043701,0.00149441,0.00032847,0.00180381,-0.0
 0056138,0.00019488,0.00001714,-0.00014186,-0.00009258,-0.00066187,0.00
 099260,-0.00110776,0.00046330,-0.00008720,0.00034955,-0.00021170,-0.00
 042851,0.00040705,0.00003003,0.00004182,-0.00006521,-0.00019111,-0.000
 39021,-0.00118981,-0.00047396,0.00164446,0.00002646,-0.00009990,0.0009
 5800,-0.00030053,-0.00030573,-0.00008640,0.00028888,-0.00008880,0.0004
 3951,0.00034093,0.00819333,-0.00659848,-0.00740706,0.02073993,0.127746
 99,0.18373733,0.00083803,-0.00064718,0.00126540,-0.00001711,0.00005050
 ,0.00010666,-0.00294422,0.00423434,0.00326086,0.00033249,-0.00009083,-
 0.00029059,-0.02317422,0.00060588,-0.00347952,0.00146782,-0.00161451,-
 0.00090684,0.00062406,-0.00137242,0.00122966,-0.00034802,-0.00073956,0
 .00003502,-0.00006326,0.00044299,-0.00020779,-0.00061760,0.00012012,-0
 .00057461,-0.00002264,0.00009627,0.00003463,0.00028713,-0.00054047,0.0
 0014388,-0.00019342,0.00008615,-0.00004654,0.00005877,0.00014476,-0.00
 007864,-0.00000304,-0.00001398,0.00001578,-0.00003577,0.00020860,0.000
 20321,-0.00002786,-0.00000147,-0.00027517,0.00004592,-0.00004064,-0.00
 001966,-0.00050008,-0.00044247,-0.00019747,0.00002051,0.00004688,0.000
 04536,0.00398031,-0.00064102,-0.00229734,-0.40754877,-0.03486370,-0.05
 869627,0.43011092,0.00016461,0.00074647,-0.00052113,0.00012461,-0.0002
 0799,-0.00036628,0.00235282,-0.00413098,-0.00262304,0.00004797,0.00022
 020,-0.00012926,0.03426042,-0.00072863,0.00184534,-0.00036076,0.000305
 41,-0.00022494,-0.00088796,0.00073949,0.00102819,-0.00021002,0.0004440
 0,0.00019132,0.00007720,-0.00019147,-0.00039093,0.00057296,-0.00025799
 ,0.00080405,0.00000981,-0.00005203,-0.00004825,-0.00000436,0.00059617,
 -0.00019131,0.00009996,-0.00014103,0.00006007,-0.00016145,-0.00018548,
 0.00014481,0.00002180,0.00000544,-0.00001378,-0.00019286,0.00040164,0.
 00004416,0.00012916,-0.00006916,0.00007038,-0.00015331,-0.00009785,-0.
 00013253,-0.00090623,-0.00107360,-0.00014488,0.00002723,0.00010093,-0.
 00009413,0.00844136,-0.00721248,0.00207491,-0.07448003,-0.03284461,-0.
 03272468,0.03411958,0.03938567,0.00118426,-0.00014444,-0.00008420,-0.0
 0002529,0.00001563,-0.00009612,0.00161435,-0.00319521,-0.00240547,-0.0
 0013298,0.00015173,-0.00017570,0.03279100,-0.00186498,0.00144017,0.000
 25454,0.00111152,0.00058497,0.00049646,0.00021421,0.00059715,0.0000147
 5,0.00008838,-0.00036121,-0.00021134,-0.00030064,-0.00043062,-0.000127
 76,-0.00005342,0.00038892,0.00001875,-0.00002316,-0.00001875,-0.000028
 84,0.00002173,0.00015992,0.00009564,-0.00001278,-0.00002164,0.00006244
 ,0.00002574,-0.00004905,-0.00000875,0.00000481,0.00000516,0.00012497,-
 0.00007028,-0.00043929,-0.00022317,-0.00013406,0.00085928,0.00005368,0
 .00003117,0.00007715,0.00055437,0.00087946,-0.00029400,0.00001171,-0.0
 0009905,0.00005415,-0.00571978,0.00311808,0.00119026,-0.09336803,-0.02
 924405,-0.04086943,0.06011451,0.03263254,0.04129862,0.00144116,0.00012
 386,0.00047380,0.00031556,-0.00028057,-0.00013990,-0.00059431,-0.00125
 205,0.00062683,-0.00062882,-0.00009207,0.00017485,0.00075184,0.0083289
 2,0.00010893,-0.00025341,-0.00130543,-0.00008784,-0.03017121,0.0053933
 2,0.02362722,0.00025155,-0.00088673,0.00320711,0.00119085,0.00075653,0
 .00223909,-0.00102829,0.00003160,-0.00037830,0.00001410,0.00004862,-0.
 00012963,0.00134050,-0.00026879,0.00049643,-0.00092433,-0.00008228,-0.
 00025881,-0.00043654,0.00013490,0.00008244,0.00004478,-0.00012689,0.00
 006169,0.00199280,0.00329002,0.00451790,0.00014261,-0.00139916,-0.0002
 5575,-0.00058218,-0.00125677,-0.00123344,-0.03666814,0.02199391,-0.005
 20684,-0.00260537,-0.00008210,-0.00195891,-0.66039063,0.18359745,0.120
 78161,0.00190860,-0.00147601,-0.00162670,-0.00226992,-0.00309251,0.002
 45450,0.72715881,-0.00037010,0.00036867,-0.00047465,-0.00021314,0.0001
 1157,0.00023423,0.00006606,0.00118521,-0.00060896,0.00055437,0.0001855
 1,-0.00013037,0.00533897,-0.01160737,-0.00589996,0.00029839,0.00179511
 ,0.00010631,0.01177963,0.02266490,-0.01025706,0.00007889,-0.00025239,0
 .00127494,-0.00132472,-0.00128504,0.00123070,0.00004357,0.00003470,-0.
 00007829,-0.00001421,-0.00001937,0.00003650,-0.00034687,-0.00020620,0.
 00009225,0.00020530,0.00008236,0.00001382,0.00022521,0.00005333,-0.000
 16801,-0.00002901,0.00002855,0.00000040,0.00229164,-0.00503902,-0.0028
 5818,0.00095710,0.00062637,-0.00020610,-0.00020631,0.00028505,0.002213
 12,0.02146854,0.01782005,0.00503677,-0.00147846,-0.00129549,0.00041253
 ,0.18041803,-0.11602161,-0.03516460,-0.00849729,-0.00402214,0.00871197
 ,0.00085217,0.00424788,-0.00315294,-0.21209777,0.09025937,-0.00071147,
 0.00011422,-0.00005318,-0.00006069,0.00010010,-0.00038810,0.00001152,0
 .00089313,0.00015678,0.00055765,0.00007454,-0.00004692,0.00022409,-0.0
 0454762,-0.00033091,0.00027261,0.00075371,-0.00018853,0.04325157,-0.01
 123892,0.00107775,0.00431865,0.00168911,-0.00605317,-0.00341177,-0.000
 37397,0.00656106,0.00092392,-0.00019612,0.00051538,0.00000975,-0.00006
 485,-0.00001682,-0.00046775,0.00078805,-0.00075522,0.00037282,-0.00011
 324,0.00024344,-0.00014320,-0.00035601,0.00032491,0.00004565,0.0000423
 4,-0.00006464,0.00191723,0.00144314,0.00081883,0.00012796,-0.00039059,
 0.00119245,0.00102292,0.00093695,-0.00233337,-0.01576469,0.00353466,0.
 02011085,-0.00368631,0.00136776,-0.00060131,0.11843884,-0.03425694,-0.
 11798272,-0.00028846,0.00145558,0.00149438,0.00061547,-0.00129064,-0.0
 0141028,-0.14757628,0.03963560,0.09772934\\-0.00000819,0.00000141,0.00
 001534,-0.00000159,-0.00000058,-0.00000251,-0.00000860,0.00000298,0.00
 000002,0.00000372,0.00000109,0.00000298,0.00002181,0.00002480,-0.00001
 464,-0.00000102,0.00000345,0.00000740,-0.02012715,0.01736759,-0.098127
 93,0.00000018,0.00000511,-0.00000244,0.00000195,0.00000963,0.00000386,
 0.00001236,0.00000517,-0.00002226,0.00000020,0.00000528,0.00000824,0.0
 0000765,-0.00001838,0.00000986,-0.00001047,-0.00000065,0.00000162,-0.0
 0000039,0.00000541,-0.00000167,-0.00000099,-0.00000368,-0.00000235,0.0
 0000271,0.00000710,0.00000111,-0.00000201,-0.00000454,0.00000229,-0.00
 000320,-0.00000531,0.00000291,0.02011007,-0.01740840,0.09812329,-0.000
 00226,0.00000198,0.00000492,-0.00000571,0.00000230,-0.00001455,0.00000
 260,0.00000474,0.00000122,0.00000722,0.00000224,-0.00000104,0.00000110
 ,-0.00000875,0.00000434\\\@


 IT WAS A GAME, A VERY INTERESTING GAME ONE COULD
 PLAY.  WHENEVER ONE SOLVED ONE OF THE LITTLE PROBLEMS,
 ONE COULD WRITE A PAPER ABOUT IT.  IT WAS VERY EASY IN
 THOSE DAYS FOR ANY SECOND-RATE PHYSICIST TO DO
 FIRST-RATE WORK.  THERE HAS NOT BEEN SUCH A GLORIOUS
 TIME SINCE.  IT IS VERY DIFFICULT NOW FOR A FIRST-RATE
 PHYSICIST TO DO SECOND-RATE WORK.
     P.A.M. DIRAC, ON THE EARLY DAYS OF QUANTUM MECHANICS
                   DIRECTIONS IN PHYSICS, 1978, P. 7
 Job cpu time:       0 days  0 hours 37 minutes 54.0 seconds.
 Elapsed time:       0 days  0 hours 32 minutes  4.3 seconds.
 File lengths (MBytes):  RWF=    158 Int=      0 D2E=      0 Chk=     11 Scr=      1
 Normal termination of Gaussian 16 at Mon Nov 13 18:09:42 2017.
