 Entering Gaussian System, Link 0=g16
 Input=da_ortho_endo_b3lyp_d3bj_midix_freeze.gjf
 Output=da_ortho_endo_b3lyp_d3bj_midix_freeze.out
 Initial command:
 /n/sw/g16_nehalem/g16/l1.exe "/scratch/dhuang9_da_ortho_endo_b3lyp_d3bj_midix_freeze/Gau-151134.inp" -scrdir="/scratch/dhuang9_da_ortho_endo_b3lyp_d3bj_midix_freeze/"
 Entering Link 1 = /n/sw/g16_nehalem/g16/l1.exe PID=    151144.
  
 Copyright (c) 1988,1990,1992,1993,1995,1998,2003,2009,2016,
            Gaussian, Inc.  All Rights Reserved.
  
 This is part of the Gaussian(R) 16 program.  It is based on
 the Gaussian(R) 09 system (copyright 2009, Gaussian, Inc.),
 the Gaussian(R) 03 system (copyright 2003, Gaussian, Inc.),
 the Gaussian(R) 98 system (copyright 1998, Gaussian, Inc.),
 the Gaussian(R) 94 system (copyright 1995, Gaussian, Inc.),
 the Gaussian 92(TM) system (copyright 1992, Gaussian, Inc.),
 the Gaussian 90(TM) system (copyright 1990, Gaussian, Inc.),
 the Gaussian 88(TM) system (copyright 1988, Gaussian, Inc.),
 the Gaussian 86(TM) system (copyright 1986, Carnegie Mellon
 University), and the Gaussian 82(TM) system (copyright 1983,
 Carnegie Mellon University). Gaussian is a federally registered
 trademark of Gaussian, Inc.
  
 This software contains proprietary and confidential information,
 including trade secrets, belonging to Gaussian, Inc.
  
 This software is provided under written license and may be
 used, copied, transmitted, or stored only in accord with that
 written license.
  
 The following legend is applicable only to US Government
 contracts under FAR:
  
                    RESTRICTED RIGHTS LEGEND
  
 Use, reproduction and disclosure by the US Government is
 subject to restrictions as set forth in subparagraphs (a)
 and (c) of the Commercial Computer Software - Restricted
 Rights clause in FAR 52.227-19.
  
 Gaussian, Inc.
 340 Quinnipiac St., Bldg. 40, Wallingford CT 06492
  
  
 ---------------------------------------------------------------
 Warning -- This program may not be used in any manner that
 competes with the business of Gaussian, Inc. or will provide
 assistance to any competitor of Gaussian, Inc.  The licensee
 of this program is prohibited from giving any competitor of
 Gaussian, Inc. access to this program.  By using this program,
 the user acknowledges that Gaussian, Inc. is engaged in the
 business of creating and licensing software in the field of
 computational chemistry and represents and warrants to the
 licensee that it is not a competitor of Gaussian, Inc. and that
 it will not use this program in any manner prohibited above.
 ---------------------------------------------------------------
  

 Cite this work as:
 Gaussian 16, Revision A.03,
 M. J. Frisch, G. W. Trucks, H. B. Schlegel, G. E. Scuseria, 
 M. A. Robb, J. R. Cheeseman, G. Scalmani, V. Barone, 
 G. A. Petersson, H. Nakatsuji, X. Li, M. Caricato, A. V. Marenich, 
 J. Bloino, B. G. Janesko, R. Gomperts, B. Mennucci, H. P. Hratchian, 
 J. V. Ortiz, A. F. Izmaylov, J. L. Sonnenberg, D. Williams-Young, 
 F. Ding, F. Lipparini, F. Egidi, J. Goings, B. Peng, A. Petrone, 
 T. Henderson, D. Ranasinghe, V. G. Zakrzewski, J. Gao, N. Rega, 
 G. Zheng, W. Liang, M. Hada, M. Ehara, K. Toyota, R. Fukuda, 
 J. Hasegawa, M. Ishida, T. Nakajima, Y. Honda, O. Kitao, H. Nakai, 
 T. Vreven, K. Throssell, J. A. Montgomery, Jr., J. E. Peralta, 
 F. Ogliaro, M. J. Bearpark, J. J. Heyd, E. N. Brothers, K. N. Kudin, 
 V. N. Staroverov, T. A. Keith, R. Kobayashi, J. Normand, 
 K. Raghavachari, A. P. Rendell, J. C. Burant, S. S. Iyengar, 
 J. Tomasi, M. Cossi, J. M. Millam, M. Klene, C. Adamo, R. Cammi, 
 J. W. Ochterski, R. L. Martin, K. Morokuma, O. Farkas, 
 J. B. Foresman, and D. J. Fox, Gaussian, Inc., Wallingford CT, 2016.
 
 ******************************************
 Gaussian 16:  ES64L-G16RevA.03 25-Dec-2016
                13-Nov-2017 
 ******************************************
 %nprocshared=4
 Will use up to    4 processors via shared memory.
 %mem=3GB
 ----------------------------------------------------------------------
 #p b3lyp empiricaldispersion=gd3bj midix scrf=(pcm,solvent=1,4-dioxane
 ) opt=modredundant freq=noraman
 ----------------------------------------------------------------------
 1/18=120,19=15,26=3,38=1/1,3;
 2/9=110,12=2,17=6,18=5,40=1/2;
 3/5=20,11=2,25=1,30=1,70=2201,71=1,72=31,74=-5,124=41/1,2,3;
 4//1;
 5/5=2,38=5,53=31/2;
 6/7=2,8=2,9=2,10=2,28=1/1;
 7//1,2,3,16;
 1/18=20,19=15,26=3/3(2);
 2/9=110/2;
 99//99;
 2/9=110/2;
 3/5=20,11=2,25=1,30=1,70=2205,71=1,72=31,74=-5,124=41/1,2,3;
 4/5=5,16=3,69=1/1;
 5/5=2,38=5,53=31/2;
 7//1,2,3,16;
 1/18=20,19=15,26=3/3(-5);
 2/9=110/2;
 6/7=2,8=2,9=2,10=2,19=2,28=1/1;
 99/9=1/99;
 Leave Link    1 at Mon Nov 13 19:34:08 2017, MaxMem=   402653184 cpu:               0.4 elap:               0.2
 (Enter /n/sw/g16_nehalem/g16/l101.exe)
 -----------
 Diels Alder
 -----------
 Symbolic Z-matrix:
 Charge =  0 Multiplicity = 1
 C                    -5.77356   2.10935  -1.51666 
 H                    -5.51952   3.09048  -1.85982 
 C                    -4.84799   1.34612  -0.8863 
 H                    -5.10203   0.365    -0.54314 
 C                    -3.42568   1.89277  -0.66311 
 H                    -2.69489   1.29016  -0.16541 
 C                    -3.09644   3.13443  -1.0949 
 H                    -3.82294   3.7417   -1.59323 
 H                    -2.1066    3.50881  -0.93695 
 N                    -7.13122   1.58755  -1.72971 
 H                    -7.0856    0.7555   -2.28253 
 C                    -7.93988   2.59662  -2.42882 
 O                    -9.11096   2.32387  -2.79998 
 O                    -7.3939    3.89262  -2.68802 
 H                    -8.07692   4.4614   -3.05075 
 C                    -3.9246    2.66816  -3.46724 
 H                    -4.42769   3.19811  -4.24887 
 C                    -2.73238   3.11757  -3.00549 
 H                    -2.29243   4.00054  -3.41986 
 H                    -2.22929   2.58762  -2.22386 
 C                    -4.5578    1.39734  -2.87086 
 O                    -5.66485   0.98002  -3.29963 
 O                    -3.88544   0.68908  -1.82625 
 H                    -4.53151   0.24017  -1.2761 
 
 The following ModRedundant input section has been read:
 B       7      19 F                                                           
 
 ITRead=  0  0  0  0  0  0  0  0  0  0  0  0  0  0  0  0  0  0  0  0
 ITRead=  0  0  0  0
 MicOpt= -1 -1 -1 -1 -1 -1 -1 -1 -1 -1 -1 -1 -1 -1 -1 -1 -1 -1 -1 -1
 MicOpt= -1 -1 -1 -1
 NAtoms=     24 NQM=       24 NQMF=       0 NMMI=      0 NMMIF=      0
                NMic=       0 NMicF=      0.
                    Isotopes and Nuclear Properties:
 (Nuclear quadrupole moments (NQMom) in fm**2, nuclear magnetic moments (NMagM)
  in nuclear magnetons)

  Atom         1           2           3           4           5           6           7           8           9          10
 IAtWgt=          12           1          12           1          12           1          12           1           1          14
 AtmWgt=  12.0000000   1.0078250  12.0000000   1.0078250  12.0000000   1.0078250  12.0000000   1.0078250   1.0078250  14.0030740
 NucSpn=           0           1           0           1           0           1           0           1           1           2
 AtZEff=   0.0000000   0.0000000   0.0000000   0.0000000   0.0000000   0.0000000   0.0000000   0.0000000   0.0000000   0.0000000
 NQMom=    0.0000000   0.0000000   0.0000000   0.0000000   0.0000000   0.0000000   0.0000000   0.0000000   0.0000000   2.0440000
 NMagM=    0.0000000   2.7928460   0.0000000   2.7928460   0.0000000   2.7928460   0.0000000   2.7928460   2.7928460   0.4037610
 AtZNuc=   6.0000000   1.0000000   6.0000000   1.0000000   6.0000000   1.0000000   6.0000000   1.0000000   1.0000000   7.0000000

  Atom        11          12          13          14          15          16          17          18          19          20
 IAtWgt=           1          12          16          16           1          12           1          12           1           1
 AtmWgt=   1.0078250  12.0000000  15.9949146  15.9949146   1.0078250  12.0000000   1.0078250  12.0000000   1.0078250   1.0078250
 NucSpn=           1           0           0           0           1           0           1           0           1           1
 AtZEff=   0.0000000   0.0000000   0.0000000   0.0000000   0.0000000   0.0000000   0.0000000   0.0000000   0.0000000   0.0000000
 NQMom=    0.0000000   0.0000000   0.0000000   0.0000000   0.0000000   0.0000000   0.0000000   0.0000000   0.0000000   0.0000000
 NMagM=    2.7928460   0.0000000   0.0000000   0.0000000   2.7928460   0.0000000   2.7928460   0.0000000   2.7928460   2.7928460
 AtZNuc=   1.0000000   6.0000000   8.0000000   8.0000000   1.0000000   6.0000000   1.0000000   6.0000000   1.0000000   1.0000000

  Atom        21          22          23          24
 IAtWgt=          12          16          16           1
 AtmWgt=  12.0000000  15.9949146  15.9949146   1.0078250
 NucSpn=           0           0           0           1
 AtZEff=   0.0000000   0.0000000   0.0000000   0.0000000
 NQMom=    0.0000000   0.0000000   0.0000000   0.0000000
 NMagM=    0.0000000   0.0000000   0.0000000   2.7928460
 AtZNuc=   6.0000000   8.0000000   8.0000000   1.0000000
 Leave Link  101 at Mon Nov 13 19:34:09 2017, MaxMem=   402653184 cpu:               1.5 elap:               0.5
 (Enter /n/sw/g16_nehalem/g16/l103.exe)

 GradGradGradGradGradGradGradGradGradGradGradGradGradGradGradGradGradGrad
 Berny optimization.
 Initialization pass.
                           ----------------------------
                           !    Initial Parameters    !
                           ! (Angstroms and Degrees)  !
 --------------------------                            --------------------------
 ! Name  Definition              Value          Derivative Info.                !
 --------------------------------------------------------------------------------
 ! R1    R(1,2)                  1.07           estimate D2E/DX2                !
 ! R2    R(1,3)                  1.3552         estimate D2E/DX2                !
 ! R3    R(1,10)                 1.47           estimate D2E/DX2                !
 ! R4    R(3,4)                  1.07           estimate D2E/DX2                !
 ! R5    R(3,5)                  1.54           estimate D2E/DX2                !
 ! R6    R(3,23)                 1.4972         estimate D2E/DX2                !
 ! R7    R(3,24)                 1.2146         estimate D2E/DX2                !
 ! R8    R(5,6)                  1.07           estimate D2E/DX2                !
 ! R9    R(5,7)                  1.3552         estimate D2E/DX2                !
 ! R10   R(7,8)                  1.07           estimate D2E/DX2                !
 ! R11   R(7,9)                  1.07           estimate D2E/DX2                !
 ! R12   R(7,19)                 2.6081         Frozen                          !
 ! R13   R(10,11)                1.0            estimate D2E/DX2                !
 ! R14   R(10,12)                1.47           estimate D2E/DX2                !
 ! R15   R(12,13)                1.2584         estimate D2E/DX2                !
 ! R16   R(12,14)                1.43           estimate D2E/DX2                !
 ! R17   R(14,15)                0.96           estimate D2E/DX2                !
 ! R18   R(16,17)                1.07           estimate D2E/DX2                !
 ! R19   R(16,18)                1.3552         estimate D2E/DX2                !
 ! R20   R(16,21)                1.54           estimate D2E/DX2                !
 ! R21   R(18,19)                1.07           estimate D2E/DX2                !
 ! R22   R(18,20)                1.07           estimate D2E/DX2                !
 ! R23   R(21,22)                1.2584         estimate D2E/DX2                !
 ! R24   R(21,23)                1.43           estimate D2E/DX2                !
 ! R25   R(23,24)                0.96           estimate D2E/DX2                !
 ! A1    A(2,1,3)              120.2269         estimate D2E/DX2                !
 ! A2    A(2,1,10)             119.8865         estimate D2E/DX2                !
 ! A3    A(3,1,10)             119.8865         estimate D2E/DX2                !
 ! A4    A(1,3,4)              120.2269         estimate D2E/DX2                !
 ! A5    A(1,3,5)              119.8865         estimate D2E/DX2                !
 ! A6    A(1,3,23)             113.217          estimate D2E/DX2                !
 ! A7    A(1,3,24)             122.7858         estimate D2E/DX2                !
 ! A8    A(4,3,5)              119.8865         estimate D2E/DX2                !
 ! A9    A(4,3,23)              87.2252         estimate D2E/DX2                !
 ! A10   A(4,3,24)              47.9226         estimate D2E/DX2                !
 ! A11   A(5,3,23)              69.6963         estimate D2E/DX2                !
 ! A12   A(5,3,24)              97.4163         estimate D2E/DX2                !
 ! A13   A(3,5,6)              119.8865         estimate D2E/DX2                !
 ! A14   A(3,5,7)              120.2269         estimate D2E/DX2                !
 ! A15   A(6,5,7)              119.8865         estimate D2E/DX2                !
 ! A16   A(5,7,8)              120.2269         estimate D2E/DX2                !
 ! A17   A(5,7,9)              119.8865         estimate D2E/DX2                !
 ! A18   A(8,7,9)              119.8865         estimate D2E/DX2                !
 ! A19   A(1,10,11)            109.4712         estimate D2E/DX2                !
 ! A20   A(1,10,12)            109.4712         estimate D2E/DX2                !
 ! A21   A(11,10,12)           109.4713         estimate D2E/DX2                !
 ! A22   A(10,12,13)           120.2269         estimate D2E/DX2                !
 ! A23   A(10,12,14)           119.8865         estimate D2E/DX2                !
 ! A24   A(13,12,14)           119.8865         estimate D2E/DX2                !
 ! A25   A(12,14,15)           109.5            estimate D2E/DX2                !
 ! A26   A(17,16,18)           119.8865         estimate D2E/DX2                !
 ! A27   A(17,16,21)           119.8865         estimate D2E/DX2                !
 ! A28   A(18,16,21)           120.2269         estimate D2E/DX2                !
 ! A29   A(16,18,19)           120.2269         estimate D2E/DX2                !
 ! A30   A(16,18,20)           119.8865         estimate D2E/DX2                !
 ! A31   A(19,18,20)           119.8865         estimate D2E/DX2                !
 ! A32   A(16,21,22)           120.2269         estimate D2E/DX2                !
 ! A33   A(16,21,23)           119.8865         estimate D2E/DX2                !
 ! A34   A(22,21,23)           119.8865         estimate D2E/DX2                !
 ! A35   A(3,23,21)             86.5014         estimate D2E/DX2                !
 ! A36   A(21,23,24)           109.5            estimate D2E/DX2                !
 ! D1    D(2,1,3,4)            180.0            estimate D2E/DX2                !
 ! D2    D(2,1,3,5)              0.0            estimate D2E/DX2                !
 ! D3    D(2,1,3,23)           -79.1078         estimate D2E/DX2                !
 ! D4    D(2,1,3,24)          -123.1793         estimate D2E/DX2                !
 ! D5    D(10,1,3,4)             0.0            estimate D2E/DX2                !
 ! D6    D(10,1,3,5)           180.0            estimate D2E/DX2                !
 ! D7    D(10,1,3,23)          100.8922         estimate D2E/DX2                !
 ! D8    D(10,1,3,24)           56.8207         estimate D2E/DX2                !
 ! D9    D(2,1,10,11)          120.0            estimate D2E/DX2                !
 ! D10   D(2,1,10,12)            0.0            estimate D2E/DX2                !
 ! D11   D(3,1,10,11)          -60.0            estimate D2E/DX2                !
 ! D12   D(3,1,10,12)          180.0            estimate D2E/DX2                !
 ! D13   D(1,3,5,6)            180.0            estimate D2E/DX2                !
 ! D14   D(1,3,5,7)              0.0            estimate D2E/DX2                !
 ! D15   D(4,3,5,6)              0.0            estimate D2E/DX2                !
 ! D16   D(4,3,5,7)            180.0            estimate D2E/DX2                !
 ! D17   D(23,3,5,6)           -74.2066         estimate D2E/DX2                !
 ! D18   D(23,3,5,7)           105.7934         estimate D2E/DX2                !
 ! D19   D(24,3,5,6)           -45.2            estimate D2E/DX2                !
 ! D20   D(24,3,5,7)           134.8            estimate D2E/DX2                !
 ! D21   D(1,3,23,21)            3.2943         estimate D2E/DX2                !
 ! D22   D(4,3,23,21)          125.1404         estimate D2E/DX2                !
 ! D23   D(5,3,23,21)         -111.5028         estimate D2E/DX2                !
 ! D24   D(3,5,7,8)              0.0            estimate D2E/DX2                !
 ! D25   D(3,5,7,9)            180.0            estimate D2E/DX2                !
 ! D26   D(6,5,7,8)            180.0            estimate D2E/DX2                !
 ! D27   D(6,5,7,9)              0.0            estimate D2E/DX2                !
 ! D28   D(1,10,12,13)         174.871          estimate D2E/DX2                !
 ! D29   D(1,10,12,14)          -5.129          estimate D2E/DX2                !
 ! D30   D(11,10,12,13)         54.8711         estimate D2E/DX2                !
 ! D31   D(11,10,12,14)       -125.1289         estimate D2E/DX2                !
 ! D32   D(10,12,14,15)       -173.1567         estimate D2E/DX2                !
 ! D33   D(13,12,14,15)          6.8433         estimate D2E/DX2                !
 ! D34   D(17,16,18,19)          0.0            estimate D2E/DX2                !
 ! D35   D(17,16,18,20)        180.0            estimate D2E/DX2                !
 ! D36   D(21,16,18,19)        180.0            estimate D2E/DX2                !
 ! D37   D(21,16,18,20)          0.0            estimate D2E/DX2                !
 ! D38   D(17,16,21,22)          0.0            estimate D2E/DX2                !
 ! D39   D(17,16,21,23)        180.0            estimate D2E/DX2                !
 ! D40   D(18,16,21,22)        180.0            estimate D2E/DX2                !
 ! D41   D(18,16,21,23)          0.0            estimate D2E/DX2                !
 ! D42   D(16,21,23,3)         101.7159         estimate D2E/DX2                !
 ! D43   D(16,21,23,24)        151.4924         estimate D2E/DX2                !
 ! D44   D(22,21,23,3)         -78.2841         estimate D2E/DX2                !
 ! D45   D(22,21,23,24)        -28.5076         estimate D2E/DX2                !
 --------------------------------------------------------------------------------
 Trust Radius=3.00D-01 FncErr=1.00D-07 GrdErr=1.00D-06 EigMax=2.50D+02 EigMin=1.00D-04
 Number of steps in this run=    116 maximum allowed number of steps=    144.
 GradGradGradGradGradGradGradGradGradGradGradGradGradGradGradGradGradGrad

 Leave Link  103 at Mon Nov 13 19:34:09 2017, MaxMem=   402653184 cpu:               0.2 elap:               0.1
 (Enter /n/sw/g16_nehalem/g16/l202.exe)
                          Input orientation:                          
 ---------------------------------------------------------------------
 Center     Atomic      Atomic             Coordinates (Angstroms)
 Number     Number       Type             X           Y           Z
 ---------------------------------------------------------------------
      1          6           0       -5.773562    2.109354   -1.516662
      2          1           0       -5.519515    3.090477   -1.859821
      3          6           0       -4.847987    1.346120   -0.886303
      4          1           0       -5.102033    0.364997   -0.543144
      5          6           0       -3.425678    1.892768   -0.663114
      6          1           0       -2.694889    1.290155   -0.165413
      7          6           0       -3.096444    3.134433   -1.094901
      8          1           0       -3.822944    3.741695   -1.593229
      9          1           0       -2.106601    3.508814   -0.936950
     10          7           0       -7.131220    1.587553   -1.729706
     11          1           0       -7.085597    0.755505   -2.282529
     12          6           0       -7.939883    2.596618   -2.428815
     13          8           0       -9.110958    2.323865   -2.799977
     14          8           0       -7.393901    3.892619   -2.688015
     15          1           0       -8.076915    4.461400   -3.050754
     16          6           0       -3.924596    2.668157   -3.467244
     17          1           0       -4.427689    3.198113   -4.248873
     18          6           0       -2.732380    3.117572   -3.005492
     19          1           0       -2.292430    4.000545   -3.419862
     20          1           0       -2.229288    2.587615   -2.223863
     21          6           0       -4.557795    1.397336   -2.870862
     22          8           0       -5.664853    0.980022   -3.299631
     23          8           0       -3.885438    0.689076   -1.826255
     24          1           0       -4.531510    0.240170   -1.276097
 ---------------------------------------------------------------------
                    Distance matrix (angstroms):
                    1          2          3          4          5
     1  C    0.000000
     2  H    1.070000   0.000000
     3  C    1.355200   2.107479   0.000000
     4  H    2.107479   3.055514   1.070000   0.000000
     5  C    2.507591   2.692725   1.540000   2.271265   0.000000
     6  H    3.460518   3.753756   2.271265   2.606327   1.070000
     7  C    2.897521   2.541320   2.511867   3.463611   1.355200
     8  H    2.544663   1.836712   2.699859   3.760431   2.107479
     9  H    3.967512   3.560152   3.492135   4.360193   2.103938
    10  N    1.470000   2.207556   2.445971   2.649561   3.868051
    11  H    2.034920   2.843131   2.702809   2.666924   4.160635
    12  C    2.400500   2.534923   3.674631   4.072994   4.898077
    13  O    3.582056   3.790784   4.773998   5.000193   6.088878
    14  O    2.679105   2.200605   4.026476   4.721996   4.883281
    15  H    3.631942   3.136567   4.981546   5.649651   5.825179
    16  C    2.745124   2.303460   3.043302   3.904006   2.951829
    17  H    3.234463   2.628924   3.861788   4.713143   3.945330
    18  C    3.532974   3.013539   3.479194   4.388061   2.732681
    19  H    4.395117   3.698111   4.471662   5.420939   3.650566
    20  H    3.645647   3.348282   3.191859   4.002189   2.085690
    21  C    1.954205   2.194046   2.006317   2.603879   2.530078
    22  O    2.113336   2.558944   2.573995   2.879799   3.577462
    23  O    2.382866   2.904834   1.497236   1.797638   1.735843
    24  H    2.257081   3.072644   1.214587   0.937175   2.080792
                    6          7          8          9         10
     6  H    0.000000
     7  C    2.103938   0.000000
     8  H    3.053066   1.070000   0.000000
     9  H    2.421527   1.070000   1.852234   0.000000
    10  N    4.713437   4.367520   3.950145   5.437509   0.000000
    11  H    4.903708   4.794069   4.476313   5.846512   1.000000
    12  C    5.860017   5.052472   4.354147   6.089741   1.470000
    13  O    7.012519   6.303862   5.606208   7.344112   2.367909
    14  O    5.934396   4.645535   3.738057   5.582928   2.510117
    15  H    6.881003   5.512830   4.553968   6.404705   3.301288
    16  C    3.783273   2.555633   2.162117   3.227104   3.803837
    17  H    4.828824   3.424004   2.777344   4.056208   4.031028
    18  C    3.377411   1.945041   1.890329   2.196256   4.828910
    19  H    4.254365   2.608070   2.397094   2.537949   5.665072
    20  H    2.477378   1.524967   2.066238   1.587389   5.027251
    21  C    3.286542   2.882202   2.769183   3.769179   2.821513
    22  O    4.328994   4.012361   3.732462   4.963689   2.232485
    23  O    2.130046   2.671546   3.062138   3.450514   3.369226
    24  H    2.389407   3.235584   3.586547   4.084022   2.963055
                   11         12         13         14         15
    11  H    0.000000
    12  C    2.034921   0.000000
    13  O    2.613349   1.258400   0.000000
    14  O    3.178200   1.430000   2.328477   0.000000
    15  H    3.912358   1.970533   2.387716   0.960000   0.000000
    16  C    3.879912   4.148009   5.240432   3.760663   4.542130
    17  H    4.110635   4.001240   4.979620   3.423015   4.043296
    18  C    5.005251   5.265172   6.431054   4.736166   5.511078
    19  H    5.899005   5.903127   7.048959   5.154828   5.814542
    20  H    5.190743   5.714279   6.910778   5.347121   6.195932
    21  C    2.673549   3.615550   4.647017   3.781980   4.669589
    22  O    1.761652   2.923605   3.732453   3.441933   4.242638
    23  O    3.233206   4.521097   5.561180   4.828523   5.770469
    24  H    2.793177   4.301002   5.256932   4.850483   5.791209
                   16         17         18         19         20
    16  C    0.000000
    17  H    1.070000   0.000000
    18  C    1.355200   2.103938   0.000000
    19  H    2.107479   2.427032   1.070000   0.000000
    20  H    2.103938   3.050630   1.070000   1.852234   0.000000
    21  C    1.540000   2.271265   2.511867   3.494278   2.693941
    22  O    2.430306   2.711377   3.640746   4.528934   3.942682
    23  O    2.571214   3.529644   2.935598   4.005382   2.550564
    24  H    3.326349   4.194951   3.808821   4.873359   3.421840
                   21         22         23         24
    21  C    0.000000
    22  O    1.258400   0.000000
    23  O    1.430000   2.328477   0.000000
    24  H    1.970533   2.434449   0.960000   0.000000
 Stoichiometry    C8H11NO4
 Framework group  C1[X(C8H11NO4)]
 Deg. of freedom    66
 Full point group                 C1      NOp   1
 Largest Abelian subgroup         C1      NOp   1
 Largest concise Abelian subgroup C1      NOp   1
                         Standard orientation:                         
 ---------------------------------------------------------------------
 Center     Atomic      Atomic             Coordinates (Angstroms)
 Number     Number       Type             X           Y           Z
 ---------------------------------------------------------------------
      1          6           0        0.314519   -0.415177   -0.600163
      2          1           0        0.183877    0.634694   -0.760179
      3          6           0       -0.746838   -1.254315   -0.677209
      4          1           0       -0.616196   -2.304185   -0.517194
      5          6           0       -2.145753   -0.694933   -0.996158
      6          1           0       -2.983748   -1.357476   -1.056990
      7          6           0       -2.319084    0.633581   -1.200052
      8          1           0       -1.484903    1.301038   -1.140532
      9          1           0       -3.293464    1.016369   -1.421316
     10          7           0        1.649847   -0.949132   -0.295712
     11          1           0        1.632707   -1.401167    0.596124
     12          6           0        2.623325    0.151999   -0.268315
     13          8           0        3.816020   -0.065095    0.069204
     14          8           0        2.213573    1.474402   -0.626438
     15          1           0        2.981456    2.049526   -0.660914
     16          6           0       -1.170747    1.250780    0.998048
     17          1           0       -0.518638    2.016558    1.363066
     18          6           0       -2.386085    1.580798    0.497439
     19          1           0       -2.695785    2.604513    0.465947
     20          1           0       -3.038194    0.815020    0.132422
     21          6           0       -0.725010   -0.222605    1.043373
     22          8           0        0.403518   -0.529051    1.508225
     23          8           0       -1.596520   -1.246028    0.555546
     24          1           0       -1.074739   -1.985554    0.235475
 ---------------------------------------------------------------------
 Rotational constants (GHZ):           1.6045789           0.5803807           0.5400268
 Leave Link  202 at Mon Nov 13 19:34:09 2017, MaxMem=   402653184 cpu:               0.5 elap:               0.2
 (Enter /n/sw/g16_nehalem/g16/l301.exe)
 Standard basis: MIDIx (5D, 7F)
 Ernie: Thresh=  0.10000D-02 Tol=  0.10000D-05 Strict=F.
 There are   169 symmetry adapted cartesian basis functions of A   symmetry.
 There are   164 symmetry adapted basis functions of A   symmetry.
   164 basis functions,   258 primitive gaussians,   169 cartesian basis functions
    49 alpha electrons       49 beta electrons
       nuclear repulsion energy       880.5194714080 Hartrees.
 IExCor=  402 DFT=T Ex+Corr=B3LYP ExCW=0 ScaHFX=  0.200000
 ScaDFX=  0.800000  0.720000  1.000000  0.810000 ScalE2=  1.000000  1.000000
 IRadAn=      5 IRanWt=     -1 IRanGd=            0 ICorTp=0 IEmpDi=141
 NAtoms=   24 NActive=   24 NUniq=   24 SFac= 1.00D+00 NAtFMM=   60 NAOKFM=F Big=F
 Integral buffers will be    131072 words long.
 Raffenetti 2 integral format.
 Two-electron integral symmetry is turned on.
 R6Disp:  Grimme-D3(BJ) Dispersion energy=       -0.0472375112 Hartrees.
 Nuclear repulsion after empirical dispersion term =      880.4722338968 Hartrees.
 ------------------------------------------------------------------------------
 Polarizable Continuum Model (PCM)
 =================================
 Model                : PCM.
 Atomic radii         : UFF (Universal Force Field).
 Polarization charges : Total charges.
 Charge compensation  : None.
 Solution method      : On-the-fly selection.
 Cavity type          : Scaled VdW (van der Waals Surface) (Alpha=1.100).
 Cavity algorithm     : GePol (No added spheres)
                        Default sphere list used, NSphG=   24.
                        Lebedev-Laikov grids with approx.  5.0 points / Ang**2.
                        Smoothing algorithm: York/Karplus (Gamma=1.0000).
                        Polarization charges: spherical gaussians, with
                                              point-specific exponents (IZeta= 3).
                        Self-potential: point-specific (ISelfS= 7).
                        Self-field    : sphere-specific E.n sum rule (ISelfD= 2).
 1st derivatives      : Analytical E(r).r(x)/FMM algorithm (CHGder, D1EAlg=3).
                        Cavity 1st derivative terms included.
 Solvent              : 1,4-Dioxane, Eps=   2.209900 Eps(inf)=   2.023222
 ------------------------------------------------------------------------------
 GePol: Number of generator spheres                  =      24
 GePol: Total number of spheres                      =      24
 GePol: Number of exposed spheres                    =      24 (100.00%)
 GePol: Number of points                             =    1733
 GePol: Average weight of points                     =       0.13
 GePol: Minimum weight of points                     =   0.52D-09
 GePol: Maximum weight of points                     =    0.20577
 GePol: Number of points with low weight             =     108
 GePol: Fraction of low-weight points (<1% of avg)   =       6.23%
 GePol: Cavity surface area                          =    222.336 Ang**2
 GePol: Cavity volume                                =    235.135 Ang**3
 Leave Link  301 at Mon Nov 13 19:34:09 2017, MaxMem=   402653184 cpu:               0.5 elap:               0.2
 (Enter /n/sw/g16_nehalem/g16/l302.exe)
 NPDir=0 NMtPBC=     1 NCelOv=     1 NCel=       1 NClECP=     1 NCelD=      1
         NCelK=      1 NCelE2=     1 NClLst=     1 CellRange=     0.0.
 One-electron integrals computed using PRISM.
 One-electron integral symmetry used in STVInt
 NBasis=   164 RedAO= T EigKep=  1.76D-03  NBF=   164
 NBsUse=   164 1.00D-06 EigRej= -1.00D+00 NBFU=   164
 Precomputing XC quadrature grid using
 IXCGrd= 4 IRadAn=           5 IRanWt=          -1 IRanGd=           0 AccXCQ= 0.00D+00.
 Generated NRdTot=       0 NPtTot=           0 NUsed=           0 NTot=          32
 NSgBfM=   169   169   169   169   169 MxSgAt=    24 MxSgA2=    24.
 Leave Link  302 at Mon Nov 13 19:34:10 2017, MaxMem=   402653184 cpu:               1.8 elap:               0.5
 (Enter /n/sw/g16_nehalem/g16/l303.exe)
 DipDrv:  MaxL=1.
 Leave Link  303 at Mon Nov 13 19:34:10 2017, MaxMem=   402653184 cpu:               0.9 elap:               0.3
 (Enter /n/sw/g16_nehalem/g16/l401.exe)
 ExpMin= 1.47D-01 ExpMax= 2.82D+02 ExpMxC= 2.82D+02 IAcc=3 IRadAn=         5 AccDes= 0.00D+00
 Harris functional with IExCor=  402 and IRadAn=       5 diagonalized for initial guess.
 HarFok:  IExCor=  402 AccDes= 0.00D+00 IRadAn=         5 IDoV= 1 UseB2=F ITyADJ=14
 ICtDFT=  3500011 ScaDFX=  1.000000  1.000000  1.000000  1.000000
 FoFCou: FMM=F IPFlag=           0 FMFlag=      100000 FMFlg1=           0
         NFxFlg=           0 DoJE=T BraDBF=F KetDBF=T FulRan=T
         wScrn=  0.000000 ICntrl=       500 IOpCl=  0 I1Cent=   200000004 NGrid=           0
         NMat0=    1 NMatS0=      1 NMatT0=    0 NMatD0=    1 NMtDS0=    0 NMtDT0=    0
 Petite list used in FoFCou.
 Harris En= -662.740282907381    
 JPrj=0 DoOrth=F DoCkMO=F.
 Leave Link  401 at Mon Nov 13 19:34:13 2017, MaxMem=   402653184 cpu:              10.5 elap:               2.8
 (Enter /n/sw/g16_nehalem/g16/l502.exe)
 Keep R1 ints in memory in canonical form, NReq=95525169.
 FoFCou: FMM=F IPFlag=           0 FMFlag=           0 FMFlg1=           0
         NFxFlg=           0 DoJE=F BraDBF=F KetDBF=F FulRan=T
         wScrn=  0.000000 ICntrl=       600 IOpCl=  0 I1Cent=           0 NGrid=           0
         NMat0=    1 NMatS0=  13530 NMatT0=    0 NMatD0=    1 NMtDS0=    0 NMtDT0=    0
 Symmetry not used in FoFCou.
 Two-electron integral symmetry not used.
 Closed shell SCF:
 Using DIIS extrapolation, IDIIS=  1040.
 NGot=   402653184 LenX=   311055599 LenY=   311026597
 Requested convergence on RMS density matrix=1.00D-08 within 128 cycles.
 Requested convergence on MAX density matrix=1.00D-06.
 Requested convergence on             energy=1.00D-06.
 No special actions if energy rises.

 Cycle   1  Pass 1  IDiag  1:
 Inv3:  Mode=1 IEnd=     9009867.
 Iteration    1 A*A^-1 deviation from unit magnitude is 3.66D-15 for   1723.
 Iteration    1 A*A^-1 deviation from orthogonality  is 1.78D-15 for    860     60.
 Iteration    1 A^-1*A deviation from unit magnitude is 3.44D-15 for   1723.
 Iteration    1 A^-1*A deviation from orthogonality  is 1.56D-15 for   1580   1209.
 E= -662.351598064876    
 DIIS: error= 5.14D-02 at cycle   1 NSaved=   1.
 NSaved= 1 IEnMin= 1 EnMin= -662.351598064876     IErMin= 1 ErrMin= 5.14D-02
 ErrMax= 5.14D-02  0.00D+00 EMaxC= 1.00D-01 BMatC= 4.31D-01 BMatP= 4.31D-01
 IDIUse=3 WtCom= 4.86D-01 WtEn= 5.14D-01
 Coeff-Com:  0.100D+01
 Coeff-En:   0.100D+01
 Coeff:      0.100D+01
 Gap=     0.125 Goal=   None    Shift=    0.000
 GapD=    0.125 DampG=1.000 DampE=0.500 DampFc=0.5000 IDamp=-1.
 Damping current iteration by 5.00D-01
 RMSDP=1.29D-02 MaxDP=4.06D-01              OVMax= 3.85D-01

 Cycle   2  Pass 1  IDiag  1:
 E= -662.349059091569     Delta-E=        0.002538973307 Rises=F Damp=T
 DIIS: error= 2.66D-02 at cycle   2 NSaved=   2.
 NSaved= 2 IEnMin= 1 EnMin= -662.351598064876     IErMin= 2 ErrMin= 2.66D-02
 ErrMax= 2.66D-02  0.00D+00 EMaxC= 1.00D-01 BMatC= 1.42D-01 BMatP= 4.31D-01
 IDIUse=3 WtCom= 7.34D-01 WtEn= 2.66D-01
 Coeff-Com:  0.327D+00 0.673D+00
 Coeff-En:   0.503D+00 0.497D+00
 Coeff:      0.374D+00 0.626D+00
 Gap=     0.128 Goal=   None    Shift=    0.000
 RMSDP=5.14D-03 MaxDP=1.01D-01 DE= 2.54D-03 OVMax= 3.62D-01

 Cycle   3  Pass 1  IDiag  1:
 E= -662.626367413917     Delta-E=       -0.277308322348 Rises=F Damp=F
 DIIS: error= 1.99D-02 at cycle   3 NSaved=   3.
 NSaved= 3 IEnMin= 3 EnMin= -662.626367413917     IErMin= 3 ErrMin= 1.99D-02
 ErrMax= 1.99D-02  0.00D+00 EMaxC= 1.00D-01 BMatC= 1.01D-01 BMatP= 1.42D-01
 IDIUse=3 WtCom= 8.01D-01 WtEn= 1.99D-01
 Coeff-Com:  0.159D+00 0.425D+00 0.415D+00
 Coeff-En:   0.000D+00 0.000D+00 0.100D+01
 Coeff:      0.128D+00 0.341D+00 0.531D+00
 Gap=     0.130 Goal=   None    Shift=    0.000
 RMSDP=4.34D-03 MaxDP=7.77D-02 DE=-2.77D-01 OVMax= 1.77D-01

 Cycle   4  Pass 1  IDiag  1:
 E= -662.686112531933     Delta-E=       -0.059745118017 Rises=F Damp=F
 DIIS: error= 1.47D-02 at cycle   4 NSaved=   4.
 NSaved= 4 IEnMin= 4 EnMin= -662.686112531933     IErMin= 4 ErrMin= 1.47D-02
 ErrMax= 1.47D-02  0.00D+00 EMaxC= 1.00D-01 BMatC= 3.71D-02 BMatP= 1.01D-01
 IDIUse=3 WtCom= 8.53D-01 WtEn= 1.47D-01
 Coeff-Com:  0.610D-01 0.120D+00 0.363D+00 0.456D+00
 Coeff-En:   0.000D+00 0.000D+00 0.300D+00 0.700D+00
 Coeff:      0.521D-01 0.103D+00 0.353D+00 0.492D+00
 Gap=     0.121 Goal=   None    Shift=    0.000
 RMSDP=1.92D-03 MaxDP=3.04D-02 DE=-5.97D-02 OVMax= 9.18D-02

 Cycle   5  Pass 1  IDiag  1:
 E= -662.714602546980     Delta-E=       -0.028490015047 Rises=F Damp=F
 DIIS: error= 3.98D-03 at cycle   5 NSaved=   5.
 NSaved= 5 IEnMin= 5 EnMin= -662.714602546980     IErMin= 5 ErrMin= 3.98D-03
 ErrMax= 3.98D-03  0.00D+00 EMaxC= 1.00D-01 BMatC= 3.26D-03 BMatP= 3.71D-02
 IDIUse=3 WtCom= 9.60D-01 WtEn= 3.98D-02
 Coeff-Com:  0.160D-01 0.180D-01 0.180D+00 0.339D+00 0.448D+00
 Coeff-En:   0.000D+00 0.000D+00 0.000D+00 0.610D-01 0.939D+00
 Coeff:      0.154D-01 0.173D-01 0.172D+00 0.328D+00 0.467D+00
 Gap=     0.116 Goal=   None    Shift=    0.000
 RMSDP=5.32D-04 MaxDP=9.92D-03 DE=-2.85D-02 OVMax= 1.97D-02

 Cycle   6  Pass 1  IDiag  1:
 E= -662.717084505722     Delta-E=       -0.002481958742 Rises=F Damp=F
 DIIS: error= 1.87D-03 at cycle   6 NSaved=   6.
 NSaved= 6 IEnMin= 6 EnMin= -662.717084505722     IErMin= 6 ErrMin= 1.87D-03
 ErrMax= 1.87D-03  0.00D+00 EMaxC= 1.00D-01 BMatC= 4.12D-04 BMatP= 3.26D-03
 IDIUse=3 WtCom= 9.81D-01 WtEn= 1.87D-02
 Coeff-Com:  0.765D-03-0.836D-02 0.545D-01 0.133D+00 0.310D+00 0.510D+00
 Coeff-En:   0.000D+00 0.000D+00 0.000D+00 0.000D+00 0.115D+00 0.885D+00
 Coeff:      0.751D-03-0.820D-02 0.534D-01 0.130D+00 0.307D+00 0.517D+00
 Gap=     0.116 Goal=   None    Shift=    0.000
 RMSDP=1.67D-04 MaxDP=2.77D-03 DE=-2.48D-03 OVMax= 5.68D-03

 Cycle   7  Pass 1  IDiag  1:
 E= -662.717397578344     Delta-E=       -0.000313072622 Rises=F Damp=F
 DIIS: error= 3.97D-04 at cycle   7 NSaved=   7.
 NSaved= 7 IEnMin= 7 EnMin= -662.717397578344     IErMin= 7 ErrMin= 3.97D-04
 ErrMax= 3.97D-04  0.00D+00 EMaxC= 1.00D-01 BMatC= 3.23D-05 BMatP= 4.12D-04
 IDIUse=3 WtCom= 9.96D-01 WtEn= 3.97D-03
 Coeff-Com: -0.172D-03-0.441D-02 0.111D-01 0.289D-01 0.114D+00 0.294D+00
 Coeff-Com:  0.557D+00
 Coeff-En:   0.000D+00 0.000D+00 0.000D+00 0.000D+00 0.000D+00 0.126D-01
 Coeff-En:   0.987D+00
 Coeff:     -0.171D-03-0.439D-02 0.111D-01 0.288D-01 0.113D+00 0.293D+00
 Coeff:      0.558D+00
 Gap=     0.117 Goal=   None    Shift=    0.000
 RMSDP=5.73D-05 MaxDP=1.22D-03 DE=-3.13D-04 OVMax= 1.67D-03

 Cycle   8  Pass 1  IDiag  1:
 E= -662.717423099009     Delta-E=       -0.000025520666 Rises=F Damp=F
 DIIS: error= 8.86D-05 at cycle   8 NSaved=   8.
 NSaved= 8 IEnMin= 8 EnMin= -662.717423099009     IErMin= 8 ErrMin= 8.86D-05
 ErrMax= 8.86D-05  0.00D+00 EMaxC= 1.00D-01 BMatC= 3.24D-06 BMatP= 3.23D-05
 IDIUse=1 WtCom= 1.00D+00 WtEn= 0.00D+00
 Coeff-Com: -0.213D-03-0.216D-02 0.182D-02 0.469D-02 0.421D-01 0.136D+00
 Coeff-Com:  0.328D+00 0.490D+00
 Coeff:     -0.213D-03-0.216D-02 0.182D-02 0.469D-02 0.421D-01 0.136D+00
 Coeff:      0.328D+00 0.490D+00
 Gap=     0.117 Goal=   None    Shift=    0.000
 RMSDP=1.59D-05 MaxDP=3.47D-04 DE=-2.55D-05 OVMax= 6.41D-04

 Cycle   9  Pass 1  IDiag  1:
 E= -662.717425790508     Delta-E=       -0.000002691499 Rises=F Damp=F
 DIIS: error= 2.86D-05 at cycle   9 NSaved=   9.
 NSaved= 9 IEnMin= 9 EnMin= -662.717425790508     IErMin= 9 ErrMin= 2.86D-05
 ErrMax= 2.86D-05  0.00D+00 EMaxC= 1.00D-01 BMatC= 2.54D-07 BMatP= 3.24D-06
 IDIUse=1 WtCom= 1.00D+00 WtEn= 0.00D+00
 Coeff-Com: -0.237D-04-0.483D-03-0.202D-03-0.137D-02 0.944D-02 0.389D-01
 Coeff-Com:  0.110D+00 0.258D+00 0.586D+00
 Coeff:     -0.237D-04-0.483D-03-0.202D-03-0.137D-02 0.944D-02 0.389D-01
 Coeff:      0.110D+00 0.258D+00 0.586D+00
 Gap=     0.117 Goal=   None    Shift=    0.000
 RMSDP=6.38D-06 MaxDP=1.31D-04 DE=-2.69D-06 OVMax= 2.61D-04

 Cycle  10  Pass 1  IDiag  1:
 E= -662.717426025922     Delta-E=       -0.000000235414 Rises=F Damp=F
 DIIS: error= 1.35D-05 at cycle  10 NSaved=  10.
 NSaved=10 IEnMin=10 EnMin= -662.717426025922     IErMin=10 ErrMin= 1.35D-05
 ErrMax= 1.35D-05  0.00D+00 EMaxC= 1.00D-01 BMatC= 4.61D-08 BMatP= 2.54D-07
 IDIUse=1 WtCom= 1.00D+00 WtEn= 0.00D+00
 Coeff-Com: -0.643D-05-0.351D-04-0.384D-03-0.151D-02 0.193D-03 0.507D-02
 Coeff-Com:  0.229D-01 0.784D-01 0.349D+00 0.546D+00
 Coeff:     -0.643D-05-0.351D-04-0.384D-03-0.151D-02 0.193D-03 0.507D-02
 Coeff:      0.229D-01 0.784D-01 0.349D+00 0.546D+00
 Gap=     0.117 Goal=   None    Shift=    0.000
 RMSDP=2.32D-06 MaxDP=3.81D-05 DE=-2.35D-07 OVMax= 1.05D-04

 Cycle  11  Pass 1  IDiag  1:
 E= -662.717426068181     Delta-E=       -0.000000042259 Rises=F Damp=F
 DIIS: error= 5.44D-06 at cycle  11 NSaved=  11.
 NSaved=11 IEnMin=11 EnMin= -662.717426068181     IErMin=11 ErrMin= 5.44D-06
 ErrMax= 5.44D-06  0.00D+00 EMaxC= 1.00D-01 BMatC= 5.12D-09 BMatP= 4.61D-08
 IDIUse=1 WtCom= 1.00D+00 WtEn= 0.00D+00
 Coeff-Com: -0.685D-06 0.724D-04-0.177D-03-0.655D-03-0.124D-02-0.294D-02
 Coeff-Com: -0.264D-02 0.413D-02 0.117D+00 0.287D+00 0.600D+00
 Coeff:     -0.685D-06 0.724D-04-0.177D-03-0.655D-03-0.124D-02-0.294D-02
 Coeff:     -0.264D-02 0.413D-02 0.117D+00 0.287D+00 0.600D+00
 Gap=     0.117 Goal=   None    Shift=    0.000
 RMSDP=1.18D-06 MaxDP=2.19D-05 DE=-4.23D-08 OVMax= 7.10D-05

 Cycle  12  Pass 1  IDiag  1:
 E= -662.717426074250     Delta-E=       -0.000000006069 Rises=F Damp=F
 DIIS: error= 1.94D-06 at cycle  12 NSaved=  12.
 NSaved=12 IEnMin=12 EnMin= -662.717426074250     IErMin=12 ErrMin= 1.94D-06
 ErrMax= 1.94D-06  0.00D+00 EMaxC= 1.00D-01 BMatC= 1.42D-09 BMatP= 5.12D-09
 IDIUse=1 WtCom= 1.00D+00 WtEn= 0.00D+00
 Coeff-Com: -0.570D-05 0.499D-04-0.624D-04-0.154D-03-0.802D-03-0.279D-02
 Coeff-Com: -0.561D-02-0.130D-01 0.600D-02 0.513D-01 0.378D+00 0.587D+00
 Coeff:     -0.570D-05 0.499D-04-0.624D-04-0.154D-03-0.802D-03-0.279D-02
 Coeff:     -0.561D-02-0.130D-01 0.600D-02 0.513D-01 0.378D+00 0.587D+00
 Gap=     0.117 Goal=   None    Shift=    0.000
 RMSDP=4.72D-07 MaxDP=8.03D-06 DE=-6.07D-09 OVMax= 2.18D-05

 Cycle  13  Pass 1  IDiag  1:
 E= -662.717426075745     Delta-E=       -0.000000001495 Rises=F Damp=F
 DIIS: error= 5.16D-07 at cycle  13 NSaved=  13.
 NSaved=13 IEnMin=13 EnMin= -662.717426075745     IErMin=13 ErrMin= 5.16D-07
 ErrMax= 5.16D-07  0.00D+00 EMaxC= 1.00D-01 BMatC= 1.00D-10 BMatP= 1.42D-09
 IDIUse=1 WtCom= 1.00D+00 WtEn= 0.00D+00
 Coeff-Com: -0.392D-05 0.137D-04-0.598D-05 0.216D-04-0.159D-03-0.790D-03
 Coeff-Com: -0.187D-02-0.617D-02-0.127D-01-0.240D-01 0.119D+00 0.245D+00
 Coeff-Com:  0.682D+00
 Coeff:     -0.392D-05 0.137D-04-0.598D-05 0.216D-04-0.159D-03-0.790D-03
 Coeff:     -0.187D-02-0.617D-02-0.127D-01-0.240D-01 0.119D+00 0.245D+00
 Coeff:      0.682D+00
 Gap=     0.117 Goal=   None    Shift=    0.000
 RMSDP=1.84D-07 MaxDP=3.07D-06 DE=-1.49D-09 OVMax= 1.04D-05

 Cycle  14  Pass 1  IDiag  1:
 E= -662.717426075884     Delta-E=       -0.000000000139 Rises=F Damp=F
 DIIS: error= 1.75D-07 at cycle  14 NSaved=  14.
 NSaved=14 IEnMin=14 EnMin= -662.717426075884     IErMin=14 ErrMin= 1.75D-07
 ErrMax= 1.75D-07  0.00D+00 EMaxC= 1.00D-01 BMatC= 1.49D-11 BMatP= 1.00D-10
 IDIUse=1 WtCom= 1.00D+00 WtEn= 0.00D+00
 Coeff-Com: -0.985D-06-0.759D-06 0.518D-05 0.318D-04 0.404D-04 0.280D-04
 Coeff-Com: -0.653D-04-0.756D-03-0.669D-02-0.197D-01 0.156D-02-0.513D-02
 Coeff-Com:  0.295D+00 0.735D+00
 Coeff:     -0.985D-06-0.759D-06 0.518D-05 0.318D-04 0.404D-04 0.280D-04
 Coeff:     -0.653D-04-0.756D-03-0.669D-02-0.197D-01 0.156D-02-0.513D-02
 Coeff:      0.295D+00 0.735D+00
 Gap=     0.117 Goal=   None    Shift=    0.000
 RMSDP=7.42D-08 MaxDP=1.05D-06 DE=-1.39D-10 OVMax= 4.04D-06

 Cycle  15  Pass 1  IDiag  1:
 E= -662.717426075905     Delta-E=       -0.000000000021 Rises=F Damp=F
 DIIS: error= 5.38D-08 at cycle  15 NSaved=  15.
 NSaved=15 IEnMin=15 EnMin= -662.717426075905     IErMin=15 ErrMin= 5.38D-08
 ErrMax= 5.38D-08  0.00D+00 EMaxC= 1.00D-01 BMatC= 1.19D-12 BMatP= 1.49D-11
 IDIUse=1 WtCom= 1.00D+00 WtEn= 0.00D+00
 Coeff-Com:  0.496D-07-0.123D-05 0.274D-05 0.122D-04 0.295D-04 0.619D-04
 Coeff-Com:  0.108D-03 0.143D-03-0.196D-02-0.711D-02-0.631D-02-0.210D-01
 Coeff-Com:  0.694D-01 0.308D+00 0.659D+00
 Coeff:      0.496D-07-0.123D-05 0.274D-05 0.122D-04 0.295D-04 0.619D-04
 Coeff:      0.108D-03 0.143D-03-0.196D-02-0.711D-02-0.631D-02-0.210D-01
 Coeff:      0.694D-01 0.308D+00 0.659D+00
 Gap=     0.117 Goal=   None    Shift=    0.000
 RMSDP=2.04D-08 MaxDP=3.01D-07 DE=-2.09D-11 OVMax= 1.27D-06

 Cycle  16  Pass 1  IDiag  1:
 E= -662.717426075906     Delta-E=       -0.000000000001 Rises=F Damp=F
 DIIS: error= 3.58D-08 at cycle  16 NSaved=  16.
 NSaved=16 IEnMin=16 EnMin= -662.717426075906     IErMin=16 ErrMin= 3.58D-08
 ErrMax= 3.58D-08  0.00D+00 EMaxC= 1.00D-01 BMatC= 3.34D-13 BMatP= 1.19D-12
 IDIUse=1 WtCom= 1.00D+00 WtEn= 0.00D+00
 Coeff-Com:  0.200D-06-0.643D-06 0.551D-06 0.122D-05 0.102D-04 0.289D-04
 Coeff-Com:  0.790D-04 0.253D-03 0.247D-03-0.337D-03-0.335D-02-0.113D-01
 Coeff-Com: -0.162D-01 0.467D-01 0.399D+00 0.584D+00
 Coeff:      0.200D-06-0.643D-06 0.551D-06 0.122D-05 0.102D-04 0.289D-04
 Coeff:      0.790D-04 0.253D-03 0.247D-03-0.337D-03-0.335D-02-0.113D-01
 Coeff:     -0.162D-01 0.467D-01 0.399D+00 0.584D+00
 Gap=     0.117 Goal=   None    Shift=    0.000
 RMSDP=6.67D-09 MaxDP=1.07D-07 DE=-9.09D-13 OVMax= 3.18D-07

 Error on total polarization charges =  0.00389
 SCF Done:  E(RB3LYP) =  -662.717426076     A.U. after   16 cycles
            NFock= 16  Conv=0.67D-08     -V/T= 2.0124
 KE= 6.545918922653D+02 PE=-3.306197822196D+03 EE= 1.108416269958D+03
 Leave Link  502 at Mon Nov 13 19:35:11 2017, MaxMem=   402653184 cpu:             220.6 elap:              57.8
 (Enter /n/sw/g16_nehalem/g16/l601.exe)
 Copying SCF densities to generalized density rwf, IOpCl= 0 IROHF=0.

 **********************************************************************

            Population analysis using the SCF density.

 **********************************************************************

 Orbital symmetries:
       Occupied  (A) (A) (A) (A) (A) (A) (A) (A) (A) (A) (A) (A)
                 (A) (A) (A) (A) (A) (A) (A) (A) (A) (A) (A) (A)
                 (A) (A) (A) (A) (A) (A) (A) (A) (A) (A) (A) (A)
                 (A) (A) (A) (A) (A) (A) (A) (A) (A) (A) (A) (A)
                 (A)
       Virtual   (A) (A) (A) (A) (A) (A) (A) (A) (A) (A) (A) (A)
                 (A) (A) (A) (A) (A) (A) (A) (A) (A) (A) (A) (A)
                 (A) (A) (A) (A) (A) (A) (A) (A) (A) (A) (A) (A)
                 (A) (A) (A) (A) (A) (A) (A) (A) (A) (A) (A) (A)
                 (A) (A) (A) (A) (A) (A) (A) (A) (A) (A) (A) (A)
                 (A) (A) (A) (A) (A) (A) (A) (A) (A) (A) (A) (A)
                 (A) (A) (A) (A) (A) (A) (A) (A) (A) (A) (A) (A)
                 (A) (A) (A) (A) (A) (A) (A) (A) (A) (A) (A) (A)
                 (A) (A) (A) (A) (A) (A) (A) (A) (A) (A) (A) (A)
                 (A) (A) (A) (A) (A) (A) (A)
 The electronic state is 1-A.
 Alpha  occ. eigenvalues --  -19.12182 -19.06023 -18.99493 -18.98924 -14.26109
 Alpha  occ. eigenvalues --  -10.27397 -10.27179 -10.22078 -10.15850 -10.13799
 Alpha  occ. eigenvalues --  -10.12984 -10.12618 -10.12063  -1.24758  -1.06996
 Alpha  occ. eigenvalues --   -1.03069  -0.98542  -0.90822  -0.86472  -0.82373
 Alpha  occ. eigenvalues --   -0.76949  -0.76119  -0.68006  -0.62180  -0.60804
 Alpha  occ. eigenvalues --   -0.58479  -0.55751  -0.53599  -0.51622  -0.51046
 Alpha  occ. eigenvalues --   -0.48188  -0.47638  -0.46291  -0.45302  -0.44648
 Alpha  occ. eigenvalues --   -0.42740  -0.40812  -0.40269  -0.39767  -0.38074
 Alpha  occ. eigenvalues --   -0.37260  -0.34732  -0.29897  -0.28503  -0.27200
 Alpha  occ. eigenvalues --   -0.25468  -0.25027  -0.17985  -0.15913
 Alpha virt. eigenvalues --   -0.04248   0.01054   0.02732   0.03674   0.07678
 Alpha virt. eigenvalues --    0.09178   0.10032   0.11347   0.11688   0.12861
 Alpha virt. eigenvalues --    0.14518   0.15004   0.16312   0.17094   0.20281
 Alpha virt. eigenvalues --    0.20817   0.22330   0.24392   0.27078   0.30231
 Alpha virt. eigenvalues --    0.32332   0.33942   0.34692   0.35725   0.37581
 Alpha virt. eigenvalues --    0.41455   0.45198   0.53150   0.53898   0.56925
 Alpha virt. eigenvalues --    0.59830   0.63587   0.65179   0.67553   0.69254
 Alpha virt. eigenvalues --    0.70048   0.71763   0.73650   0.74709   0.76930
 Alpha virt. eigenvalues --    0.77904   0.79663   0.82560   0.83981   0.84613
 Alpha virt. eigenvalues --    0.85972   0.87053   0.88126   0.89058   0.90072
 Alpha virt. eigenvalues --    0.92340   0.93362   0.94608   0.95932   0.96495
 Alpha virt. eigenvalues --    0.98490   1.00302   1.02786   1.04943   1.06322
 Alpha virt. eigenvalues --    1.09742   1.12164   1.13558   1.17033   1.19060
 Alpha virt. eigenvalues --    1.23228   1.27478   1.31599   1.35834   1.36273
 Alpha virt. eigenvalues --    1.39968   1.42452   1.46712   1.47145   1.50888
 Alpha virt. eigenvalues --    1.52905   1.55870   1.57056   1.60845   1.61744
 Alpha virt. eigenvalues --    1.63751   1.64451   1.68531   1.70782   1.71275
 Alpha virt. eigenvalues --    1.72692   1.74929   1.76211   1.77583   1.80451
 Alpha virt. eigenvalues --    1.81221   1.82661   1.83924   1.84768   1.90561
 Alpha virt. eigenvalues --    1.92412   1.95153   1.98347   2.02635   2.06439
 Alpha virt. eigenvalues --    2.07020   2.09100   2.13156   2.17632   2.20938
 Alpha virt. eigenvalues --    2.24543   2.36731   2.41919   2.47553   2.52849
 Alpha virt. eigenvalues --    2.55456   2.58938   2.72955   2.87467   2.96852
          Condensed to atoms (all electrons):
               1          2          3          4          5          6
     1  C    5.230008   0.340143   0.312458  -0.003480   0.007769   0.001431
     2  H    0.340143   0.443123  -0.013671   0.001133  -0.010520   0.000045
     3  C    0.312458  -0.013671   6.054125   0.307689   0.185386  -0.008009
     4  H   -0.003480   0.001133   0.307689   0.540373   0.013108  -0.001668
     5  C    0.007769  -0.010520   0.185386   0.013108   5.196654   0.392675
     6  H    0.001431   0.000045  -0.008009  -0.001668   0.392675   0.462747
     7  C   -0.012051  -0.000696  -0.016855  -0.000739   0.548367  -0.021188
     8  H    0.015455   0.010008  -0.017774   0.000057  -0.016819   0.002623
     9  H    0.000424  -0.000191   0.003938   0.000057  -0.036311  -0.004275
    10  N    0.219968  -0.011990  -0.042750   0.007858   0.002150  -0.000012
    11  H   -0.035396   0.002389  -0.003663  -0.002524  -0.000259  -0.000004
    12  C   -0.028988  -0.006672   0.005441  -0.000334  -0.000111   0.000001
    13  O    0.001659   0.000532  -0.000020  -0.000002   0.000000   0.000000
    14  O   -0.009448   0.037010   0.000674   0.000005  -0.000001   0.000000
    15  H    0.000091  -0.000871  -0.000009  -0.000001  -0.000001   0.000000
    16  C   -0.069329   0.005592  -0.023878  -0.001983  -0.021021  -0.000308
    17  H   -0.001131   0.002215   0.000701   0.000025  -0.000094   0.000005
    18  C   -0.011615   0.001611  -0.002744  -0.000208  -0.076675   0.000128
    19  H    0.000092  -0.000227  -0.000098   0.000001   0.003086  -0.000036
    20  H    0.001635   0.000553  -0.001531   0.000154  -0.027971  -0.001239
    21  C    0.133720  -0.014554   0.042464   0.012833   0.020838   0.000843
    22  O   -0.078342  -0.004122  -0.079247  -0.005526   0.000775  -0.000076
    23  O   -0.123498   0.005822  -0.459520  -0.107386  -0.210361  -0.019548
    24  H    0.024507  -0.001956  -0.062339   0.055334   0.052072   0.001838
               7          8          9         10         11         12
     1  C   -0.012051   0.015455   0.000424   0.219968  -0.035396  -0.028988
     2  H   -0.000696   0.010008  -0.000191  -0.011990   0.002389  -0.006672
     3  C   -0.016855  -0.017774   0.003938  -0.042750  -0.003663   0.005441
     4  H   -0.000739   0.000057   0.000057   0.007858  -0.002524  -0.000334
     5  C    0.548367  -0.016819  -0.036311   0.002150  -0.000259  -0.000111
     6  H   -0.021188   0.002623  -0.004275  -0.000012  -0.000004   0.000001
     7  C    5.709104   0.355795   0.399624   0.000146  -0.000004   0.000013
     8  H    0.355795   0.461180  -0.016368  -0.000208   0.000054  -0.000037
     9  H    0.399624  -0.016368   0.487364   0.000001   0.000000  -0.000001
    10  N    0.000146  -0.000208   0.000001   7.227318   0.253626   0.244753
    11  H   -0.000004   0.000054   0.000000   0.253626   0.405674  -0.006141
    12  C    0.000013  -0.000037  -0.000001   0.244753  -0.006141   4.116221
    13  O    0.000000   0.000000   0.000000  -0.067436   0.003982   0.490882
    14  O    0.000012  -0.000561   0.000000  -0.059176   0.002425   0.216335
    15  H   -0.000002   0.000019   0.000000   0.005848  -0.000269   0.003336
    16  C   -0.080474  -0.017733   0.005655   0.000319   0.002018  -0.000252
    17  H    0.000991  -0.000036  -0.000155   0.000008  -0.000096   0.000167
    18  C   -0.202502  -0.011617  -0.043418   0.000049  -0.000080   0.000046
    19  H    0.004695  -0.000981   0.001434   0.000000   0.000001   0.000000
    20  H   -0.068351  -0.009594  -0.011418  -0.000007  -0.000001  -0.000001
    21  C   -0.018651  -0.005781   0.001432  -0.009204  -0.013113  -0.002049
    22  O    0.000075   0.000051  -0.000008  -0.076036   0.064314   0.013108
    23  O   -0.049868   0.004101  -0.000075  -0.000760   0.001763   0.000113
    24  H    0.006133  -0.000641  -0.000006   0.000148   0.001426  -0.000201
              13         14         15         16         17         18
     1  C    0.001659  -0.009448   0.000091  -0.069329  -0.001131  -0.011615
     2  H    0.000532   0.037010  -0.000871   0.005592   0.002215   0.001611
     3  C   -0.000020   0.000674  -0.000009  -0.023878   0.000701  -0.002744
     4  H   -0.000002   0.000005  -0.000001  -0.001983   0.000025  -0.000208
     5  C    0.000000  -0.000001  -0.000001  -0.021021  -0.000094  -0.076675
     6  H    0.000000   0.000000   0.000000  -0.000308   0.000005   0.000128
     7  C    0.000000   0.000012  -0.000002  -0.080474   0.000991  -0.202502
     8  H    0.000000  -0.000561   0.000019  -0.017733  -0.000036  -0.011617
     9  H    0.000000   0.000000   0.000000   0.005655  -0.000155  -0.043418
    10  N   -0.067436  -0.059176   0.005848   0.000319   0.000008   0.000049
    11  H    0.003982   0.002425  -0.000269   0.002018  -0.000096  -0.000080
    12  C    0.490882   0.216335   0.003336  -0.000252   0.000167   0.000046
    13  O    8.204480  -0.060445   0.011317  -0.000001   0.000000   0.000000
    14  O   -0.060445   8.264365   0.219989  -0.000618   0.001185   0.000021
    15  H    0.011317   0.219989   0.370775   0.000049  -0.000029   0.000000
    16  C   -0.000001  -0.000618   0.000049   5.350410   0.383578   0.418270
    17  H    0.000000   0.001185  -0.000029   0.383578   0.459721  -0.028782
    18  C    0.000000   0.000021   0.000000   0.418270  -0.028782   5.549738
    19  H    0.000000   0.000000   0.000000  -0.021874  -0.005657   0.363796
    20  H    0.000000   0.000000   0.000000  -0.031367   0.003291   0.412473
    21  C    0.000027   0.000193  -0.000045   0.393484  -0.012651  -0.072348
    22  O   -0.000074  -0.000314   0.000002  -0.044717   0.001416   0.004357
    23  O    0.000000  -0.000001   0.000000  -0.050777   0.001267   0.028602
    24  H    0.000000   0.000001   0.000000   0.008301  -0.000174  -0.004091
              19         20         21         22         23         24
     1  C    0.000092   0.001635   0.133720  -0.078342  -0.123498   0.024507
     2  H   -0.000227   0.000553  -0.014554  -0.004122   0.005822  -0.001956
     3  C   -0.000098  -0.001531   0.042464  -0.079247  -0.459520  -0.062339
     4  H    0.000001   0.000154   0.012833  -0.005526  -0.107386   0.055334
     5  C    0.003086  -0.027971   0.020838   0.000775  -0.210361   0.052072
     6  H   -0.000036  -0.001239   0.000843  -0.000076  -0.019548   0.001838
     7  C    0.004695  -0.068351  -0.018651   0.000075  -0.049868   0.006133
     8  H   -0.000981  -0.009594  -0.005781   0.000051   0.004101  -0.000641
     9  H    0.001434  -0.011418   0.001432  -0.000008  -0.000075  -0.000006
    10  N    0.000000  -0.000007  -0.009204  -0.076036  -0.000760   0.000148
    11  H    0.000001  -0.000001  -0.013113   0.064314   0.001763   0.001426
    12  C    0.000000  -0.000001  -0.002049   0.013108   0.000113  -0.000201
    13  O    0.000000   0.000000   0.000027  -0.000074   0.000000   0.000000
    14  O    0.000000   0.000000   0.000193  -0.000314  -0.000001   0.000001
    15  H    0.000000   0.000000  -0.000045   0.000002   0.000000   0.000000
    16  C   -0.021874  -0.031367   0.393484  -0.044717  -0.050777   0.008301
    17  H   -0.005657   0.003291  -0.012651   0.001416   0.001267  -0.000174
    18  C    0.363796   0.412473  -0.072348   0.004357   0.028602  -0.004091
    19  H    0.477372  -0.022499   0.004078  -0.000038  -0.000240   0.000054
    20  H   -0.022499   0.495817  -0.005404  -0.000014   0.007168  -0.000553
    21  C    0.004078  -0.005404   4.682544   0.334528  -0.113922   0.054679
    22  O   -0.000038  -0.000014   0.334528   8.481054  -0.014627   0.006634
    23  O   -0.000240   0.007168  -0.113922  -0.014627   9.660150   0.023462
    24  H    0.000054  -0.000553   0.054679   0.006634   0.023462   0.517556
 Mulliken charges:
               1
     1  C    0.083920
     2  H    0.215294
     3  C   -0.180770
     4  H    0.185223
     5  C   -0.022737
     6  H    0.194027
     7  C   -0.553574
     8  H    0.248809
     9  H    0.212296
    10  N   -0.694612
    11  H    0.323880
    12  C    0.954370
    13  O   -0.584900
    14  O   -0.611649
    15  H    0.389801
    16  C   -0.203343
    17  H    0.194236
    18  C   -0.325010
    19  H    0.197041
    20  H    0.258860
    21  C    0.586059
    22  O   -0.603174
    23  O   -0.581866
    24  H    0.317818
 Sum of Mulliken charges =   0.00000
 Mulliken charges with hydrogens summed into heavy atoms:
               1
     1  C    0.299214
     3  C    0.004454
     5  C    0.171291
     7  C   -0.092470
    10  N   -0.370732
    12  C    0.954370
    13  O   -0.584900
    14  O   -0.221848
    16  C   -0.009107
    18  C    0.130891
    21  C    0.586059
    22  O   -0.603174
    23  O   -0.264049
 Electronic spatial extent (au):  <R**2>=           2227.7860
 Charge=              0.0000 electrons
 Dipole moment (field-independent basis, Debye):
    X=             -5.5309    Y=              0.6685    Z=             -0.6736  Tot=              5.6117
 Quadrupole moment (field-independent basis, Debye-Ang):
   XX=            -80.4582   YY=            -61.8623   ZZ=            -85.3079
   XY=              6.8284   XZ=             -0.4901   YZ=             -1.5050
 Traceless Quadrupole moment (field-independent basis, Debye-Ang):
   XX=             -4.5821   YY=             14.0139   ZZ=             -9.4318
   XY=              6.8284   XZ=             -0.4901   YZ=             -1.5050
 Octapole moment (field-independent basis, Debye-Ang**2):
  XXX=            -49.0126  YYY=              0.9565  ZZZ=              8.5292  XYY=              8.0720
  XXY=             25.7988  XXZ=            -12.4314  XZZ=             17.0308  YZZ=              3.0828
  YYZ=              2.5738  XYZ=             -5.3689
 Hexadecapole moment (field-independent basis, Debye-Ang**3):
 XXXX=          -1999.4991 YYYY=           -463.2473 ZZZZ=           -418.8335 XXXY=             95.8792
 XXXZ=             -7.4925 YYYX=             54.5847 YYYZ=            -15.6613 ZZZX=            -19.4938
 ZZZY=            -14.8635 XXYY=           -323.8428 XXZZ=           -380.7985 YYZZ=           -157.6667
 XXYZ=            -26.8559 YYXZ=             -2.6001 ZZXY=             15.4428
 N-N= 8.804722338968D+02 E-N=-3.306197823690D+03  KE= 6.545918922653D+02
 No NMR shielding tensors so no spin-rotation constants.
 Leave Link  601 at Mon Nov 13 19:35:13 2017, MaxMem=   402653184 cpu:               3.1 elap:               1.1
 (Enter /n/sw/g16_nehalem/g16/l701.exe)
 ... and contract with generalized density number  0.
 Compute integral first derivatives.
 R6Disp: Adding Grimme-D3(BJ) dispersion energy 1st derivatives to the gradient.
 D1PCM: PCM CHGder 1st derivatives, ID1Alg=3 FixD1E=F DoIter=F DoCFld=F I1PDM=0.
 GePol: Maximum number of non-zero 1st derivatives   =     221
 Leave Link  701 at Mon Nov 13 19:35:16 2017, MaxMem=   402653184 cpu:               9.5 elap:               3.1
 (Enter /n/sw/g16_nehalem/g16/l702.exe)
 L702 exits ... SP integral derivatives will be done elsewhere.
 Leave Link  702 at Mon Nov 13 19:35:16 2017, MaxMem=   402653184 cpu:               0.3 elap:               0.1
 (Enter /n/sw/g16_nehalem/g16/l703.exe)
 Integral derivatives from FoFJK, PRISM(SPDF).
 Compute integral first derivatives, UseDBF=F ICtDFT=           0.
 Calling FoFJK, ICntrl=      2127 FMM=F ISym2X=0 I1Cent= 0 IOpClX= 0 NMat=1 NMatS=1 NMatT=0.
 FoFJK:  IHMeth= 1 ICntrl=    2127 DoSepK=F KAlg= 0 I1Cent=           0 FoldK=F
 IRaf=         0 NMat=       1 IRICut=       1 DoRegI=T DoRafI=F ISym2E= 0 IDoP0=0 IntGTp=1.
 FoFCou: FMM=F IPFlag=           0 FMFlag=      100000 FMFlg1=         800
         NFxFlg=           0 DoJE=F BraDBF=F KetDBF=F FulRan=T
         wScrn=  0.000000 ICntrl=      2127 IOpCl=  0 I1Cent=           0 NGrid=           0
         NMat0=    1 NMatS0=      1 NMatT0=    0 NMatD0=    1 NMtDS0=    0 NMtDT0=    0
 Symmetry not used in FoFCou.
 Leave Link  703 at Mon Nov 13 19:35:24 2017, MaxMem=   402653184 cpu:              28.3 elap:               8.0
 (Enter /n/sw/g16_nehalem/g16/l716.exe)
 Dipole        =-2.17602521D+00 2.63010500D-01-2.65026569D-01
 ***** Axes restored to original set *****
 -------------------------------------------------------------------
 Center     Atomic                   Forces (Hartrees/Bohr)
 Number     Number              X              Y              Z
 -------------------------------------------------------------------
      1        6          -0.044538016    0.027991013    0.083945452
      2        1          -0.014492940    0.013650975    0.012580915
      3        6          -0.051152599    0.184849806    0.169017768
      4        1          -0.063169369   -0.006731005    0.086525871
      5        6          -0.029027631    0.078162083    0.107946272
      6        1           0.002286034   -0.007365207    0.009835720
      7        6          -0.029329052    0.008681265    0.097323555
      8        1          -0.003953237    0.021203659    0.032953141
      9        1           0.004300842    0.013738483    0.019685231
     10        7           0.007867161    0.099580022    0.009563669
     11        1          -0.004822651   -0.020561081   -0.017529246
     12        6          -0.054842711   -0.016539205   -0.022549109
     13        8           0.052745710    0.013115409    0.016303484
     14        8           0.035905671   -0.056391418    0.033335294
     15        1          -0.030618530    0.006143842   -0.010564482
     16        6           0.022044222   -0.057226585    0.002634397
     17        1          -0.016712988   -0.004840588   -0.004679880
     18        6           0.002898254   -0.030247680   -0.073947365
     19        1           0.005421715    0.014852677    0.001326748
     20        1           0.035455994   -0.019059819   -0.058216863
     21        6          -0.065552041    0.042388477   -0.130971511
     22        8           0.059008731   -0.054857909   -0.078032968
     23        8           0.186206538   -0.127342283   -0.255222700
     24        1          -0.005929106   -0.123194932   -0.031263393
 -------------------------------------------------------------------
 Cartesian Forces:  Max     0.255222700 RMS     0.067376235
 Leave Link  716 at Mon Nov 13 19:35:25 2017, MaxMem=   402653184 cpu:               0.3 elap:               0.1
 (Enter /n/sw/g16_nehalem/g16/l103.exe)

 GradGradGradGradGradGradGradGradGradGradGradGradGradGradGradGradGradGrad
 Berny optimization.
 FormGI is forming the generalized inverse of G from B-inverse, IUseBI=4.
 Internal  Forces:  Max     0.507899237 RMS     0.092703528
 Search for a local minimum.
 Step number   1 out of a maximum of  116
 All quantities printed in internal units (Hartrees-Bohrs-Radians)
 RMS Force = .91866D-01 SwitMx=.10000D-02 MixMth= 1
 Mixed Optimization -- RFO/linear search
 Second derivative matrix not updated -- first step.
 ITU=  0
     Eigenvalues ---    0.00237   0.00311   0.00766   0.00766   0.00817
     Eigenvalues ---    0.00941   0.01062   0.01295   0.01372   0.01457
     Eigenvalues ---    0.02046   0.02583   0.02681   0.02681   0.02681
     Eigenvalues ---    0.02681   0.03905   0.03937   0.06512   0.08510
     Eigenvalues ---    0.11579   0.11845   0.13120   0.13554   0.16000
     Eigenvalues ---    0.16000   0.16000   0.16000   0.16000   0.16000
     Eigenvalues ---    0.16000   0.16148   0.17486   0.19565   0.22000
     Eigenvalues ---    0.22000   0.22847   0.23485   0.23972   0.25000
     Eigenvalues ---    0.25000   0.25000   0.26391   0.28409   0.28519
     Eigenvalues ---    0.35740   0.35740   0.36931   0.37230   0.37230
     Eigenvalues ---    0.37230   0.37230   0.37230   0.37230   0.37230
     Eigenvalues ---    0.40724   0.40989   0.43335   0.47688   0.53490
     Eigenvalues ---    0.53930   0.53930   0.55473   0.80209   0.80209
     Eigenvalues --- 1000.000001000.000001000.000001000.000001000.00000
     Eigenvalues --- 1000.000001000.000001000.000001000.000001000.00000
     Eigenvalues --- 1000.000001000.000001000.000001000.000001000.00000
     Eigenvalues --- 1000.000001000.000001000.000001000.000001000.00000
     Eigenvalues --- 1000.000001000.000001000.000001000.000001000.00000
     Eigenvalues --- 1000.000001000.000001000.000001000.000001000.00000
     Eigenvalues --- 1000.000001000.000001000.000001000.000001000.00000
     Eigenvalues --- 1000.000001000.000001000.000001000.000001000.00000
     Eigenvalues --- 1000.00000
 RFO step:  Lambda=-8.33228206D-01 EMin= 2.36824246D-03
 Linear search not attempted -- first point.
 Maximum step size (   0.300) exceeded in Quadratic search.
    -- Step size scaled by   0.379
 Iteration  1 RMS(Cart)=  0.19569085 RMS(Int)=  0.01209522
 Iteration  2 RMS(Cart)=  0.03877259 RMS(Int)=  0.00076512
 Iteration  3 RMS(Cart)=  0.00081503 RMS(Int)=  0.00066825
 Iteration  4 RMS(Cart)=  0.00000364 RMS(Int)=  0.00066825
 Iteration  5 RMS(Cart)=  0.00000003 RMS(Int)=  0.00066825
 Iteration  1 RMS(Cart)=  0.00011055 RMS(Int)=  0.00001357
 Iteration  2 RMS(Cart)=  0.00000299 RMS(Int)=  0.00001374
 Iteration  3 RMS(Cart)=  0.00000008 RMS(Int)=  0.00001375
 ITry= 1 IFail=0 DXMaxC= 7.40D-01 DCOld= 1.00D+10 DXMaxT= 3.00D-01 DXLimC= 3.00D+00 Rises=F
 Variable       Old X    -DE/DX   Delta X   Delta X   Delta X     New X
                                 (Linear)    (Quad)   (Total)
    R1        2.02201   0.00504   0.00000   0.00158   0.00158   2.02359
    R2        2.56096   0.02490   0.00000   0.00687   0.00687   2.56783
    R3        2.77790  -0.01600   0.00000  -0.00509  -0.00509   2.77281
    R4        2.02201   0.04892   0.00000   0.01537   0.01537   2.03738
    R5        2.91018   0.07041   0.00000   0.02434   0.02463   2.93481
    R6        2.82937   0.50790   0.00000   0.16682   0.16376   2.99313
    R7        2.29524   0.10621   0.00000   0.03906   0.04143   2.33667
    R8        2.02201   0.01029   0.00000   0.00323   0.00323   2.02524
    R9        2.56096   0.08813   0.00000   0.02529   0.02571   2.58666
   R10        2.02201  -0.00063   0.00000  -0.00020  -0.00020   2.02181
   R11        2.02201   0.01169   0.00000   0.00367   0.00367   2.02568
   R12        4.92854   0.15529   0.00000   0.00000   0.00000   4.92854
   R13        1.88973   0.02658   0.00000   0.00769   0.00769   1.89741
   R14        2.77790  -0.04646   0.00000  -0.01478  -0.01478   2.76311
   R15        2.37803  -0.05674   0.00000  -0.01314  -0.01314   2.36489
   R16        2.70231  -0.04765   0.00000  -0.01452  -0.01452   2.68779
   R17        1.81414   0.02942   0.00000   0.00803   0.00803   1.82217
   R18        2.02201   0.00888   0.00000   0.00279   0.00279   2.02480
   R19        2.56096  -0.02955   0.00000  -0.00827  -0.00826   2.55270
   R20        2.91018  -0.12384   0.00000  -0.04328  -0.04387   2.86631
   R21        2.02201  -0.10188   0.00000  -0.03325  -0.03379   1.98822
   R22        2.02201  -0.01642   0.00000  -0.00516  -0.00516   2.01685
   R23        2.37803  -0.00713   0.00000  -0.00165  -0.00165   2.37638
   R24        2.70231   0.07161   0.00000   0.02074   0.02021   2.72252
   R25        1.81414   0.05368   0.00000   0.01066   0.01152   1.82566
    A1        2.09836   0.00851   0.00000   0.00330   0.00329   2.10165
    A2        2.09241  -0.01301   0.00000  -0.00491  -0.00492   2.08750
    A3        2.09241   0.00449   0.00000   0.00162   0.00161   2.09403
    A4        2.09836   0.00723   0.00000   0.00173   0.00138   2.09974
    A5        2.09241  -0.02852   0.00000  -0.01157  -0.01265   2.07977
    A6        1.97601   0.09459   0.00000   0.03808   0.03933   2.01534
    A7        2.14302  -0.03586   0.00000  -0.01143  -0.01138   2.13163
    A8        2.09241   0.02129   0.00000   0.00984   0.00976   2.10218
    A9        1.52237  -0.08481   0.00000  -0.02963  -0.02963   1.49274
   A10        0.83641   0.04070   0.00000   0.01555   0.01611   0.85252
   A11        1.21643   0.12114   0.00000   0.04610   0.04498   1.26141
   A12        1.70024   0.10609   0.00000   0.04229   0.04237   1.74261
   A13        2.09241  -0.02024   0.00000  -0.00727  -0.00737   2.08505
   A14        2.09836   0.03068   0.00000   0.01081   0.01095   2.10931
   A15        2.09241  -0.01044   0.00000  -0.00354  -0.00363   2.08879
   A16        2.09836   0.01173   0.00000   0.00447   0.00440   2.10276
   A17        2.09241  -0.00408   0.00000  -0.00156  -0.00163   2.09078
   A18        2.09241  -0.00765   0.00000  -0.00292  -0.00300   2.08942
   A19        1.91063  -0.00298   0.00000  -0.00084  -0.00083   1.90980
   A20        1.91063   0.02604   0.00000   0.00924   0.00924   1.91987
   A21        1.91063  -0.01251   0.00000  -0.00463  -0.00463   1.90600
   A22        2.09836   0.01796   0.00000   0.00628   0.00628   2.10464
   A23        2.09241  -0.03373   0.00000  -0.01180  -0.01180   2.08062
   A24        2.09241   0.01577   0.00000   0.00552   0.00552   2.09793
   A25        1.91114  -0.02699   0.00000  -0.01030  -0.01030   1.90084
   A26        2.09241   0.09873   0.00000   0.03762   0.03841   2.13082
   A27        2.09241   0.06730   0.00000   0.02563   0.02642   2.11883
   A28        2.09836  -0.16603   0.00000  -0.06325  -0.06488   2.03348
   A29        2.09836   0.06677   0.00000   0.02640   0.02684   2.12520
   A30        2.09241  -0.01798   0.00000  -0.00732  -0.00758   2.08484
   A31        2.09241  -0.04880   0.00000  -0.01908  -0.01933   2.07308
   A32        2.09836   0.09082   0.00000   0.03410   0.03519   2.13354
   A33        2.09241  -0.19711   0.00000  -0.07360  -0.07585   2.01656
   A34        2.09241   0.10629   0.00000   0.03951   0.04058   2.13299
   A35        1.50973   0.49794   0.00000   0.17457   0.17453   1.68426
   A36        1.91114   0.10443   0.00000   0.03405   0.03399   1.94512
    D1        3.14159  -0.04198   0.00000  -0.01874  -0.01879   3.12280
    D2        0.00000   0.10072   0.00000   0.04062   0.03985   0.03985
    D3       -1.38069  -0.08272   0.00000  -0.03001  -0.02956  -1.41025
    D4       -2.14988   0.00066   0.00000  -0.00222  -0.00187  -2.15175
    D5        0.00000  -0.03027   0.00000  -0.01354  -0.01358  -0.01358
    D6        3.14159   0.11244   0.00000   0.04581   0.04506  -3.09653
    D7        1.76090  -0.07101   0.00000  -0.02481  -0.02435   1.73655
    D8        0.99171   0.01237   0.00000   0.00298   0.00334   0.99504
    D9        2.09440   0.00558   0.00000   0.00248   0.00247   2.09687
   D10        0.00000   0.00678   0.00000   0.00301   0.00300   0.00300
   D11       -1.04720  -0.00610   0.00000  -0.00270  -0.00269  -1.04989
   D12        3.14159  -0.00489   0.00000  -0.00217  -0.00217   3.13943
   D13        3.14159  -0.07988   0.00000  -0.03299  -0.03279   3.10881
   D14        0.00000  -0.05696   0.00000  -0.02335  -0.02343  -0.02343
   D15        0.00000   0.06233   0.00000   0.02616   0.02594   0.02594
   D16        3.14159   0.08526   0.00000   0.03581   0.03530  -3.10630
   D17       -1.29515   0.09721   0.00000   0.03701   0.03705  -1.25810
   D18        1.84644   0.12014   0.00000   0.04666   0.04640   1.89285
   D19       -0.78889  -0.05116   0.00000  -0.01774  -0.01803  -0.80691
   D20        2.35270  -0.02824   0.00000  -0.00810  -0.00867   2.34403
   D21        0.05750  -0.05925   0.00000  -0.02314  -0.02188   0.03562
   D22        2.18411  -0.07171   0.00000  -0.02732  -0.02687   2.15725
   D23       -1.94609  -0.04438   0.00000  -0.01625  -0.01634  -1.96244
   D24        0.00000   0.02190   0.00000   0.00988   0.01001   0.01001
   D25        3.14159  -0.03016   0.00000  -0.01306  -0.01292   3.12867
   D26        3.14159   0.04483   0.00000   0.01952   0.01938  -3.12221
   D27        0.00000  -0.00723   0.00000  -0.00341  -0.00355  -0.00355
   D28        3.05208   0.00155   0.00000   0.00055   0.00054   3.05262
   D29       -0.08952  -0.00058   0.00000  -0.00041  -0.00041  -0.08993
   D30        0.95768  -0.00308   0.00000  -0.00124  -0.00124   0.95644
   D31       -2.18391  -0.00521   0.00000  -0.00220  -0.00220  -2.18611
   D32       -3.02216   0.00077   0.00000   0.00035   0.00035  -3.02181
   D33        0.11944  -0.00135   0.00000  -0.00061  -0.00061   0.11883
   D34        0.00000   0.07310   0.00000   0.03263   0.03281   0.03281
   D35       -3.14159   0.04892   0.00000   0.02082   0.02050  -3.12109
   D36        3.14159   0.09298   0.00000   0.04284   0.04366  -3.09793
   D37        0.00000   0.06879   0.00000   0.03103   0.03135   0.03135
   D38        0.00000   0.08053   0.00000   0.03558   0.03523   0.03523
   D39        3.14159   0.04506   0.00000   0.02105   0.02128  -3.12031
   D40        3.14159   0.06066   0.00000   0.02538   0.02446  -3.11713
   D41        0.00000   0.02519   0.00000   0.01084   0.01051   0.01051
   D42        1.77528  -0.02799   0.00000  -0.01746  -0.01754   1.75774
   D43        2.64404   0.00997   0.00000   0.00368   0.00139   2.64543
   D44       -1.36632  -0.06334   0.00000  -0.03194  -0.03148  -1.39780
   D45       -0.49755  -0.02538   0.00000  -0.01081  -0.01256  -0.51011
         Item               Value     Threshold  Converged?
 Maximum Force            0.501826     0.000450     NO 
 RMS     Force            0.091866     0.000300     NO 
 Maximum Displacement     0.740261     0.001800     NO 
 RMS     Displacement     0.230404     0.001200     NO 
 Predicted change in Energy=-3.028289D-01
 Lowest energy point so far.  Saving SCF results.
 GradGradGradGradGradGradGradGradGradGradGradGradGradGradGradGradGradGrad

 Leave Link  103 at Mon Nov 13 19:35:26 2017, MaxMem=   402653184 cpu:               5.7 elap:               1.9
 (Enter /n/sw/g16_nehalem/g16/l202.exe)
                          Input orientation:                          
 ---------------------------------------------------------------------
 Center     Atomic      Atomic             Coordinates (Angstroms)
 Number     Number       Type             X           Y           Z
 ---------------------------------------------------------------------
      1          6           0       -5.847284    2.156969   -1.473249
      2          1           0       -5.642846    3.165711   -1.768782
      3          6           0       -4.872287    1.392626   -0.915037
      4          1           0       -5.084657    0.382948   -0.602266
      5          6           0       -3.473010    2.017030   -0.661943
      6          1           0       -2.709625    1.427891   -0.194265
      7          6           0       -3.207050    3.311561   -1.018425
      8          1           0       -3.965044    3.916771   -1.469913
      9          1           0       -2.238901    3.729096   -0.824996
     10          7           0       -7.191883    1.602863   -1.668203
     11          1           0       -7.138653    0.801542   -2.270865
     12          6           0       -8.062787    2.606519   -2.278254
     13          8           0       -9.230527    2.313406   -2.619692
     14          8           0       -7.568040    3.924744   -2.479481
     15          1           0       -8.289677    4.485935   -2.786208
     16          6           0       -3.686073    2.514852   -3.681733
     17          1           0       -4.035959    3.030608   -4.553305
     18          6           0       -2.579442    2.905402   -3.012716
     19          1           0       -2.027467    3.753027   -3.302221
     20          1           0       -2.258016    2.349465   -2.160259
     21          6           0       -4.422949    1.310762   -3.126923
     22          8           0       -5.450141    0.839950   -3.678815
     23          8           0       -3.857337    0.731188   -1.935380
     24          1           0       -4.534452    0.304111   -1.394581
 ---------------------------------------------------------------------
                    Distance matrix (angstroms):
                    1          2          3          4          5
     1  C    0.000000
     2  H    1.070838   0.000000
     3  C    1.358837   2.113403   0.000000
     4  H    2.118339   3.068567   1.078135   0.000000
     5  C    2.512962   2.693093   1.553034   2.295907   0.000000
     6  H    3.465870   3.755384   2.279882   2.626622   1.071710
     7  C    2.917324   2.552922   2.542835   3.503621   1.368804
     8  H    2.576770   1.862373   2.739030   3.807131   2.122247
     9  H    3.989015   3.577007   3.521637   4.398254   2.116786
    10  N    1.467306   2.202754   2.447853   2.657972   3.874805
    11  H    2.034946   2.842326   2.706300   2.679242   4.183656
    12  C    2.399705   2.535423   3.675756   4.077066   4.901634
    13  O    3.575632   3.784432   4.769480   4.998492   6.088483
    14  O    2.664307   2.188058   4.015743   4.715448   4.869506
    15  H    3.621219   3.127916   4.974775   5.645906   5.814488
    16  C    3.110677   2.812820   3.212647   3.998020   3.067956
    17  H    3.678435   3.217748   4.076692   4.870377   4.060412
    18  C    3.689024   3.316561   3.456282   4.295246   2.667171
    19  H    4.525874   3.970810   4.400356   5.290897   3.474815
    20  H    3.659491   3.503796   3.049677   3.779474   1.957465
    21  C    2.340818   2.602600   2.258549   2.769944   2.734470
    22  O    2.599380   3.015713   2.877122   3.131705   3.794216
    23  O    2.491245   3.023689   1.583895   1.845204   1.850064
    24  H    2.272179   3.091492   1.236511   0.967834   2.144180
                    6          7          8          9         10
     6  H    0.000000
     7  C    2.115392   0.000000
     8  H    3.065596   1.069895   0.000000
     9  H    2.432067   1.071944   1.852218   0.000000
    10  N    4.721625   4.384148   3.975674   5.455630   0.000000
    11  H    4.931619   4.829730   4.518625   5.888012   1.004067
    12  C    5.864172   5.065810   4.377405   6.106537   1.462177
    13  O    7.013487   6.312103   5.622996   7.355811   2.359295
    14  O    5.921206   4.639926   3.741774   5.583487   2.488131
    15  H    6.870719   5.507931   4.556208   6.405548   3.281339
    16  C    3.781186   2.820889   2.633505   3.424857   4.144482
    17  H    4.830020   3.641621   3.208990   4.197332   4.508007
    18  C    3.184910   2.129801   2.307163   2.362321   4.977844
    19  H    3.940937   2.608070   2.671772   2.486346   5.827899
[...]
 .00974178,-0.00887984,0.00053583,-0.00012398,-0.00002951,0.00011289,0.
 00296554,0.00315813,-0.01189104,-0.00028292,0.00030821,0.00159472,-0.0
 0006943,0.00013109,0.00019344,0.00257373,0.00001089,0.00153301,0.00030
 548,-0.00031045,-0.00046096,0.00013198,-0.00046825,-0.00260245,0.00038
 629,0.00059471,0.00070179,-0.00087387,0.00026420,0.00060692,-0.0001493
 7,-0.00020977,0.00018169,0.80663569,-0.00327748,-0.00012180,-0.0014638
 7,0.00017314,-0.00043730,-0.00099580,0.00203579,-0.00111052,0.00200304
 ,0.00023122,0.00013066,-0.00013790,-0.00343447,-0.00320891,-0.00025024
 ,-0.00013370,0.00016193,0.00002922,0.00134481,0.00139507,-0.00518471,-
 0.00071277,0.00055898,0.00048271,-0.00002818,-0.00009465,-0.00003190,0
 .00417670,-0.00036773,0.00192467,0.00007178,-0.00022873,0.00008132,-0.
 00052034,0.00311107,-0.00430797,0.00057470,-0.00026470,0.00094877,-0.0
 0163253,-0.00102387,0.00207210,0.00018888,-0.00022129,0.00000483,-0.00
 634766,0.58153860,-0.00067160,-0.00244365,0.00229789,0.00110744,-0.000
 06233,-0.00191539,-0.00424345,-0.00031036,-0.00270747,0.00005348,0.000
 20686,0.00000675,0.00203269,0.00015341,-0.00274523,-0.00001257,0.00006
 303,-0.00000749,-0.00041353,0.00048527,-0.00145006,-0.00018426,0.00020
 050,-0.00003420,-0.00004219,-0.00010992,-0.00030708,0.00018416,0.00066
 136,0.00013437,0.00012175,-0.00004017,-0.00013355,-0.00075313,-0.00173
 460,0.00025099,0.00041517,0.00060350,0.00022336,0.00167023,0.00078137,
 -0.00032104,0.00021811,0.00007365,-0.00040790,0.20854681,-0.04548973,0
 .19867129,0.00040351,0.00043029,0.00097246,0.00005968,-0.00016814,0.00
 055345,-0.00034770,-0.00006997,-0.00033474,0.00002129,-0.00003268,-0.0
 0003542,0.00032209,0.00016563,0.00011318,-0.00001972,-0.00002455,0.000
 03381,-0.00018138,-0.00007446,0.00018992,0.00002708,-0.00007350,-0.000
 10494,0.00003773,-0.00002956,0.00001521,-0.00049920,0.00014893,-0.0008
 1046,-0.00008079,-0.00001285,-0.00003714,-0.00143081,-0.00395433,0.002
 82297,0.00061357,0.00095175,-0.00026865,-0.00064378,0.00263323,-0.0011
 7079,-0.00041437,0.00048397,-0.00049207,-0.17764266,0.13491328,-0.0541
 6951,0.18977020,0.00040259,-0.00018012,-0.00020588,0.00016398,0.000507
 65,-0.00047289,0.00004713,0.00011100,-0.00004910,-0.00001621,0.0000585
 3,0.00002807,0.00000920,-0.00019478,-0.00001375,-0.00003062,-0.0000083
 8,-0.00000108,-0.00005658,0.00008309,-0.00018241,0.00001776,0.00001264
 ,0.00001315,-0.00000524,-0.00000188,0.00002563,-0.00033090,-0.00011211
 ,-0.00013171,0.00001304,-0.00002291,-0.00002189,-0.00129940,-0.0008456
 5,0.00112999,0.00019799,0.00013090,-0.00005765,0.00192359,-0.00057513,
 -0.00095986,0.00006725,0.00011265,-0.00017260,0.12882042,-0.20289736,0
 .05346600,-0.14058584,0.21586144,-0.00002574,0.00111752,-0.00218425,0.
 00046068,-0.00023960,-0.00142376,0.00068939,-0.00028120,0.00063272,0.0
 0004875,-0.00006988,0.00007262,-0.00091267,-0.00043985,-0.00001998,0.0
 0003278,-0.00005840,0.00000773,0.00021858,0.00044418,-0.00049795,-0.00
 003836,-0.00015034,-0.00006657,0.00006564,-0.00002338,0.00010301,0.000
 33396,-0.00016513,0.00034057,-0.00003224,0.00001356,-0.00001186,0.0011
 7374,0.00205186,-0.00108288,-0.00064726,-0.00073367,-0.00006620,-0.000
 85230,-0.00109317,-0.00032143,-0.00039517,-0.00021087,0.00069823,-0.05
 208168,0.05159062,-0.06062103,0.05949416,-0.05761398,0.05405009,0.0015
 8790,-0.00224876,0.00634388,0.00002377,-0.00007576,-0.00045911,-0.0069
 8999,0.00021478,-0.00324378,-0.00013077,-0.00004273,0.00000338,0.00621
 007,0.00544152,-0.00178613,0.00012685,-0.00003642,-0.00021938,-0.00393
 767,-0.00106690,0.00750687,0.00012187,0.00007261,0.00017309,0.00035579
 ,-0.00040671,-0.00098390,-0.00265669,0.00041440,-0.00130539,-0.0001439
 8,0.00025924,0.00024677,0.00094544,-0.00032915,0.00166106,-0.00056370,
 -0.00030465,-0.00055566,-0.00012505,0.00032324,-0.00027339,0.00000802,
 0.00003250,0.00006837,-0.48022070,-0.06906133,-0.12675720,-0.01700271,
 -0.00789072,-0.00577201,0.77758133,0.00192171,-0.00180829,0.00351344,0
 .00019014,0.00023511,-0.00018365,-0.00505793,0.00072808,-0.00144428,-0
 .00009410,0.00000949,-0.00000639,0.00401431,0.00200670,-0.00173085,0.0
 0006841,-0.00004083,0.00009714,-0.00026435,-0.00213109,0.00382193,0.00
 067758,-0.00091102,-0.00212963,-0.00006983,0.00016565,0.00002484,-0.00
 224190,0.00057612,-0.00092633,0.00003721,0.00013174,-0.00008019,0.0004
 5748,-0.00225921,0.00177575,-0.00015692,0.00041189,-0.00032273,0.00130
 017,0.00075141,-0.00119599,-0.00008350,0.00007734,0.00002459,-0.070557
 38,-0.13361375,-0.01482201,0.02352200,0.01036647,0.00647608,0.05109783
 ,0.66730922,0.00144227,-0.00149805,0.00442485,0.00035609,0.00018788,-0
 .00054380,-0.00656902,-0.00030120,-0.00601982,-0.00032958,-0.00003277,
 0.00010632,0.01147813,0.00880384,-0.00547873,-0.00001716,0.00007725,0.
 00034166,-0.00087797,-0.00328033,0.00864349,0.00023831,-0.00086517,-0.
 00366252,0.00016472,-0.00004095,0.00039076,-0.00194413,-0.00004750,-0.
 00100584,-0.00018635,0.00016568,0.00021319,0.00003832,-0.00020948,0.00
 126370,-0.00013359,-0.00014789,-0.00033365,0.00014837,0.00012498,-0.00
 029618,-0.00001704,0.00009906,0.00000793,-0.12122458,-0.01185425,-0.09
 151354,-0.00908246,-0.00271514,0.00410516,0.19247628,-0.02707501,0.180
 00948,-0.00003089,-0.00029934,0.00039185,-0.00009435,-0.00002749,0.000
 01558,-0.00052309,-0.00007781,-0.00014026,-0.00000982,0.00002092,-0.00
 003430,0.00006219,0.00088202,-0.00012272,0.00005920,0.00007162,-0.0000
 1450,0.00026928,-0.00059317,0.00186703,-0.00015364,0.00024111,0.000270
 13,-0.00010923,0.00001786,-0.00021820,-0.00005543,0.00018810,0.0000201
 7,0.00004039,-0.00000083,-0.00002884,0.00003607,-0.00021108,-0.0000042
 5,0.00003902,0.00006585,0.00002164,0.00000346,0.00014552,-0.00004530,-
 0.00001855,-0.00001956,0.00000577,-0.00669053,-0.03237919,-0.00158249,
 0.00084207,0.00069188,0.00280128,-0.09073412,-0.08844217,-0.01263761,0
 .09076903,-0.00037037,0.00006720,-0.00024172,-0.00002689,-0.00000917,-
 0.00003642,0.00034727,-0.00018264,0.00030111,0.00004613,0.00002887,-0.
 00003731,-0.00048510,-0.00006748,-0.00015341,-0.00007294,0.00005705,0.
 00006897,0.00093999,0.00011447,-0.00131863,-0.00005701,0.00033106,-0.0
 0100140,0.00008340,0.00000133,0.00024126,0.00052785,0.00003183,0.00031
 772,0.00003299,-0.00004159,-0.00001781,-0.00014769,0.00024576,-0.00040
 847,0.00013235,0.00000745,0.00012004,-0.00012155,-0.00012214,0.0001541
 0,0.00001246,-0.00000858,-0.00000887,0.00138420,-0.00156814,0.00030414
 ,-0.00021052,0.00095157,-0.00018633,-0.09457554,-0.31229236,-0.0110313
 6,0.10207915,0.32685178,0.00004402,0.00038535,-0.00093601,0.00005285,0
 .00000525,0.00007729,0.00135928,0.00004606,0.00029886,-0.00003229,-0.0
 0003956,0.00000456,-0.00115506,-0.00081141,0.00080750,-0.00005862,-0.0
 0009661,0.00008991,0.00101626,0.00033458,-0.00501373,0.00048847,-0.000
 22082,-0.00111367,-0.00009747,-0.00015378,-0.00025823,-0.00002931,-0.0
 0007745,-0.00004296,0.00000085,0.00000374,-0.00002632,0.00015204,-0.00
 018484,0.00013952,-0.00008602,0.00002955,-0.00005094,0.00010362,0.0000
 4302,-0.00004371,0.00000220,-0.00003731,0.00000169,-0.00571441,-0.0109
 0074,0.00743568,0.00231485,-0.00041283,-0.00655133,-0.01073600,-0.0124
 3507,-0.03674319,0.01435093,0.01505322,0.03033211,-0.00021979,0.000000
 06,-0.00001101,0.00000884,-0.00001888,-0.00009249,-0.00019093,-0.00023
 960,-0.00021711,-0.00000951,0.00000496,0.00004330,0.00029256,0.0001277
 4,0.00026266,0.00000658,0.00003250,0.00009174,-0.00000405,0.00007031,0
 .00050166,-0.00005955,-0.00000703,0.00000491,-0.00000619,-0.00003347,-
 0.00002898,0.00022523,-0.00007920,0.00011163,-0.00002637,0.00001025,0.
 00004284,-0.00000585,0.00053746,-0.00029781,-0.00000675,-0.00014312,0.
 00003959,-0.00031496,-0.00018672,0.00029207,0.00003868,-0.00001191,-0.
 00001007,-0.01750747,0.02617408,-0.00996792,-0.00193391,-0.00261377,-0
 .00393154,-0.16754069,0.12722640,-0.05092508,0.00936380,-0.00956771,0.
 00178426,0.17689326,0.00022341,-0.00007132,0.00015931,-0.00002942,-0.0
 0003816,0.00002137,-0.00002985,0.00010396,-0.00009652,-0.00003775,-0.0
 0003155,0.00001518,-0.00010092,0.00076191,0.00021061,0.00005703,0.0000
 3416,-0.00007893,-0.00018764,-0.00048506,0.00075527,-0.00017064,0.0000
 9677,-0.00009154,-0.00008264,-0.00014016,-0.00023622,-0.00030625,0.000
 00248,-0.00019066,-0.00001500,0.00002909,0.00001328,0.00015508,-0.0000
 2675,0.00022376,-0.00011453,-0.00004855,-0.00008901,-0.00007084,0.0000
 7631,-0.00002122,-0.00001024,-0.00001539,0.00001597,-0.00639920,0.0083
 4019,-0.00208936,-0.00226401,0.00045525,0.00049475,0.13590733,-0.21431
 613,0.05548971,0.01736072,-0.01558995,0.00709958,-0.14283794,0.2224996
 5,0.00014456,0.00010676,-0.00018036,-0.00001525,-0.00008778,0.00001171
 ,0.00024798,0.00024967,0.00052210,0.00003201,-0.00003579,-0.00002659,-
 0.00060136,-0.00124362,-0.00049748,-0.00002102,0.00002843,-0.00016552,
 0.00119256,-0.00098095,-0.00205452,-0.00000426,-0.00006782,-0.00007775
 ,-0.00006552,0.00005988,0.00008624,-0.00003618,-0.00001089,0.00000439,
 0.00002278,-0.00000123,-0.00003072,0.00026124,0.00013327,-0.00007811,-
 0.00014835,-0.00005893,-0.00003190,-0.00034195,0.00004237,0.00006186,-
 0.00001822,-0.00002764,0.00005903,-0.00842506,0.00786742,0.00256951,-0
 .00331330,-0.00009047,0.00950778,-0.05066814,0.05673500,-0.05758027,-0
 .00056644,-0.00188602,0.00338892,0.06000983,-0.06088694,0.05020124,0.0
 0902782,0.00327678,0.00317935,0.00007416,0.00004537,0.00047024,-0.0020
 2017,0.00050448,-0.00140853,0.00021749,-0.00005038,0.00012870,0.002001
 09,0.00168414,0.00048764,-0.00019420,-0.00004082,-0.00040703,-0.001838
 02,-0.00125122,0.00191426,0.00016930,-0.00017813,-0.00037382,0.0000405
 0,-0.00017632,-0.00007352,-0.00525834,-0.00425924,-0.00651250,-0.00198
 338,0.00029944,0.00262062,-0.00585670,0.00561619,0.00822087,-0.0007174
 4,-0.00225122,-0.00227455,0.00058530,-0.00167195,-0.00126081,-0.000308
 46,0.00081988,-0.00009150,-0.09484316,-0.02956813,-0.00318236,0.007535
 42,0.02484090,-0.00082511,-0.02094524,-0.03886371,-0.00439485,-0.00239
 555,0.00167326,-0.00431538,-0.00207486,0.00011475,0.00178833,0.8819931
 7,0.00623258,-0.00072958,0.00058045,0.00026295,-0.00071776,0.00000134,
 -0.00277747,0.00160514,-0.00180665,-0.00066235,-0.00075357,0.00091504,
 0.00401231,0.00557432,0.00171037,0.00046341,-0.00028093,0.00019613,-0.
 00264619,-0.00280178,0.00695100,0.00063269,-0.00093633,-0.00088601,0.0
 0025773,-0.00007290,-0.00020699,-0.00461149,-0.00051573,-0.00294815,-0
 .00052839,0.00059872,0.00029382,0.00329787,0.00254762,0.00408430,-0.00
 190491,-0.00187583,-0.00177269,-0.00144482,-0.00031667,0.00014344,0.00
 003642,0.00001983,0.00018710,-0.01955409,-0.19747945,0.00622822,-0.012
 30630,-0.02054345,-0.00095217,-0.02475547,-0.00569332,-0.01322084,0.00
 220406,0.00181266,0.00408647,0.00359525,0.00124535,0.00084297,0.104493
 26,0.61576372,0.00771068,-0.00097843,0.00068458,-0.00014824,0.00008023
 ,0.00024558,-0.00262327,0.00175024,-0.00129836,0.00024135,-0.00015331,
 -0.00063998,-0.00031430,0.00024740,-0.00051058,0.00010437,-0.00001412,
 -0.00000528,0.00018675,-0.00029720,0.00062818,-0.00007554,0.00000438,-
 0.00001021,0.00010178,0.00008764,-0.00002256,-0.00216191,-0.00197177,-
 0.00486009,-0.00023825,0.00002112,0.00072238,0.00045013,0.00076897,0.0
 0456888,-0.00110951,-0.00082551,-0.00156860,0.00019958,0.00024783,-0.0
 0122386,-0.00025208,0.00022073,0.00019311,-0.00288026,0.00859920,-0.07
 864782,0.00310411,0.00921790,0.00232490,-0.00455464,-0.01008004,0.0015
 5165,-0.00584906,-0.00007105,0.01151970,0.00192363,-0.00076805,-0.0076
 0824,0.17010140,-0.02667436,0.24546240,-0.00940410,-0.00167378,-0.0034
 8489,-0.00004135,0.00007003,-0.00037972,0.00364855,-0.00107933,0.00207
 366,-0.00004814,0.00016799,-0.00008015,-0.00355431,-0.00324620,-0.0005
 3514,0.00005215,0.00007233,0.00024939,0.00167317,0.00175287,-0.0033902
 3,-0.00024389,0.00027244,0.00053683,-0.00003197,0.00010811,0.00009064,
 0.00420147,0.00436898,0.00813462,0.00146323,-0.00014219,-0.00229290,0.
 00000320,-0.00365996,-0.00718684,0.00078210,0.00322156,0.00363871,-0.0
 0061065,0.00148442,0.00146770,0.00028502,-0.00081524,0.00009811,-0.039
 56109,-0.02330927,-0.01212214,0.00059497,-0.00156671,0.00057479,0.0086
 9547,-0.00240265,0.00446864,-0.00130981,-0.00096028,-0.00029950,0.0013
 3811,0.00063652,-0.00028701,-0.61345837,-0.12882753,-0.12688218,0.7232
 4935,-0.00055364,-0.00017568,-0.00124333,-0.00008151,0.00036035,0.0002
 6986,0.00098072,-0.00038551,0.00095946,0.00013972,0.00021530,-0.000257
 81,-0.00117344,-0.00152282,-0.00052787,-0.00012642,0.00008605,-0.00002
 809,0.00085382,0.00081843,-0.00179589,-0.00020473,0.00030317,0.0002701
 5,-0.00006916,0.00005076,0.00010335,0.00040896,-0.00027752,-0.00055476
 ,0.00042079,-0.00048710,-0.00064748,-0.00151796,-0.00390709,-0.0002503
 4,0.00074778,0.00054719,0.00004615,0.00240114,-0.00081318,-0.00173013,
 -0.00023403,0.00022884,-0.00014383,-0.04797712,-0.00661752,-0.00956441
 ,0.00038529,0.00293473,0.00000385,0.00250528,-0.00670001,0.00347320,-0
 .00190297,-0.00031608,-0.00130733,-0.00067526,0.00001251,-0.00032234,-
 0.13306261,-0.14335709,-0.02535080,0.13669103,0.12977230,0.00115811,0.
 00023318,-0.00087275,-0.00012362,0.00004528,0.00007006,0.00071801,-0.0
 0076063,-0.00019583,0.00000713,-0.00000056,0.00029624,-0.00019403,-0.0
 0046596,-0.00002230,-0.00006226,0.00003680,-0.00000167,-0.00004200,0.0
 0020292,-0.00058481,-0.00000449,0.00004330,0.00006258,-0.00005928,-0.0
 0003339,0.00001010,0.00079894,-0.00268672,-0.00291878,-0.00079551,-0.0
 0012075,0.00086608,-0.00080991,0.00057599,-0.00325800,0.00052075,-0.00
 052059,0.00069298,0.00001507,-0.00036935,0.00093766,0.00023026,-0.0001
 8770,-0.00030680,-0.00826305,-0.00296767,0.01853865,0.00034106,-0.0011
 7065,-0.00130074,0.00096567,0.00023501,0.00300221,0.00084270,-0.000053
 36,-0.00249676,-0.00006982,0.00020934,0.00118726,-0.12919400,-0.025038
 49,-0.10221239,0.16535769,0.02866237,0.07773921,-0.00094642,-0.0004179
 7,0.00003685,0.00003740,-0.00003982,-0.00003452,-0.00039584,0.00022571
 ,-0.00009601,-0.00012841,-0.00009454,-0.00012091,0.00026032,0.00101555
 ,0.00013667,0.00017291,-0.00005277,0.00018905,0.00014539,-0.00013445,0
 .00127460,0.00005788,-0.00013766,-0.00012231,0.00006405,0.00007159,0.0
 0004479,-0.00046508,0.00121036,0.00164046,0.00044809,0.00004124,-0.000
 75566,0.00181517,-0.00212260,-0.00212933,-0.00012876,0.00072517,0.0007
 0301,-0.00028855,0.00065138,0.00035964,0.00016338,-0.00037178,0.000055
 73,0.01371432,-0.00280841,0.00245617,-0.00062073,-0.00382136,-0.000235
 11,-0.00393601,-0.00207107,-0.00251258,0.00052046,-0.00052134,0.000827
 95,0.00102599,-0.00195017,0.00048840,-0.17416287,0.04263271,-0.0385779
 9,-0.07388023,0.04796839,-0.03266694,0.40356497,-0.00131572,0.00018875
 ,-0.00029978,-0.00015177,0.00025444,0.00009291,0.00109676,-0.00100895,
 0.00085347,0.00033434,0.00025390,-0.00030912,-0.00106253,-0.00129367,0
 .00009547,-0.00025148,0.00008703,-0.00019017,0.00063245,0.00068464,-0.
 00204588,-0.00021242,0.00040603,0.00030587,-0.00012278,0.00001815,0.00
 006255,0.00219164,-0.00071668,-0.00063958,-0.00023996,-0.00026960,0.00
 061536,-0.00224287,0.00031274,-0.00000740,0.00081134,0.00029147,0.0001
 1999,0.00093223,-0.00002411,-0.00047086,-0.00018250,0.00024606,-0.0000
 8538,0.01723049,-0.04524265,0.01071724,-0.00313648,-0.00516399,-0.0000
 1300,0.00389912,-0.00406169,0.00414599,0.00006814,-0.00055017,-0.00039
 699,-0.00095080,-0.00296951,-0.00022105,0.08251548,-0.19727852,0.04248
 224,0.02445722,0.02007337,0.00739504,0.07682391,0.53047316,-0.00310521
 ,-0.00058270,-0.00138606,0.00002979,-0.00006531,-0.00003052,0.00150209
 ,-0.00068139,0.00000488,-0.00047755,-0.00019551,0.00087180,0.00066543,
 0.00081416,0.00048749,0.00011654,-0.00000858,0.00018436,-0.00023230,-0
 .00017482,0.00066742,0.00007876,-0.00008974,-0.00006265,-0.00001341,-0
 .00002051,-0.00000851,0.00113597,0.00104508,0.00209891,0.00009669,0.00
 009759,-0.00036192,0.00027120,-0.00042813,-0.00229300,0.00055832,0.000
 35914,0.00075887,-0.00033481,-0.00022529,0.00059607,0.00009190,-0.0001
 1224,-0.00002398,-0.00011131,0.00651544,0.00675490,-0.00014900,-0.0001
 4993,0.00161639,-0.00215260,-0.00001000,-0.00025465,0.00062330,-0.0000
 2537,-0.00087865,0.00004177,-0.00004586,0.00106860,-0.04225865,0.03014
 338,-0.07237649,-0.03122621,0.01351327,0.01629125,0.09006230,-0.044364
 37,0.06347887,0.00026409,0.00006719,-0.00001228,-0.00001523,0.00001381
 ,0.00001862,-0.00008816,0.00004709,-0.00013944,0.00002337,-0.00000639,
 0.00007547,0.00011371,-0.00012204,0.00001510,-0.00002741,0.00000933,-0
 .00001542,-0.00003507,0.00001287,-0.00005936,-0.00001203,0.00002442,0.
 00000586,-0.00001092,-0.00001120,0.00000608,-0.00018539,-0.00013101,-0
 .00009781,-0.00010079,0.00010228,0.00011152,-0.00014871,0.00028255,0.0
 0018399,0.00002618,-0.00014359,-0.00005224,0.00001357,-0.00016716,0.00
 000539,-0.00001359,0.00004720,-0.00001460,-0.00309601,0.00332907,-0.00
 270366,0.00059013,0.00102160,-0.00014456,-0.00072917,-0.00020770,0.000
 04088,0.00012004,-0.00014210,0.00002648,0.00070783,0.00015219,0.000324
 40,0.02441251,0.03189777,0.00154345,-0.00384291,-0.00592408,0.00132954
 ,-0.16703743,-0.20112381,-0.01521300,0.14907140,0.00021342,-0.00020917
 ,0.00020239,0.00001645,-0.00002360,-0.00001931,-0.00031506,0.00026313,
 0.00005300,0.00003208,0.00002986,-0.00017294,0.00000242,0.00021460,-0.
 00005036,0.00003799,-0.00001716,-0.00000561,0.00000015,-0.00006500,0.0
 0029458,0.00002205,-0.00003976,-0.00004231,0.00002620,0.00001524,-0.00
 000898,-0.00042109,0.00035811,0.00019397,0.00019925,0.00003095,-0.0002
 3285,0.00076382,-0.00062485,-0.00004357,-0.00025069,0.00009430,0.00000
 157,-0.00005933,0.00022036,-0.00002945,0.00003416,-0.00008089,0.000026
 02,0.00624103,-0.00073813,0.00272196,-0.00069118,-0.00104015,0.0000385
 3,0.00062627,0.00105848,-0.00024766,-0.00008335,0.00024727,-0.00001204
 ,-0.00041362,0.00007490,-0.00014432,-0.01451021,-0.05581445,0.00345677
 ,-0.00562038,0.00915660,-0.00326343,-0.15682205,-0.29471020,-0.0053083
 0,0.17097169,0.34159957,0.00020826,0.00008459,-0.00003395,-0.00001224,
 0.00001947,-0.00003639,-0.00022951,-0.00002578,0.00043252,0.00014995,0
 .00007493,-0.00026949,-0.00013338,-0.00003481,0.00002313,-0.00004351,-
 0.00002587,-0.00003640,0.00010449,0.00012736,-0.00009680,-0.00000827,0
 .00001546,0.00000099,0.00001302,0.00001959,0.00001731,-0.00010613,-0.0
 0003330,-0.00030666,0.00009829,-0.00011920,0.00003947,0.00013030,-0.00
 004049,0.00054687,-0.00015313,-0.00003635,-0.00019724,0.00002400,0.000
 09850,-0.00016556,-0.00001842,0.00001300,0.00003243,-0.00337325,0.0014
 6544,0.00392839,0.00001330,0.00054106,0.00068876,0.00002199,-0.0002616
 1,-0.00062822,0.00003361,-0.00008303,0.00005976,0.00040195,-0.00011381
 ,-0.00033718,0.00766120,0.01714234,0.00308311,0.00147614,-0.00357726,-
 0.00552347,-0.02102423,-0.01784255,-0.01720338,0.01476558,0.00259232,0
 .01598200\\-0.00000296,0.00000830,0.00000759,-0.00000393,-0.00000712,0
 .00000434,-0.00001757,0.00001157,0.00001014,0.00001149,-0.00002546,-0.
 00004992,0.00000862,-0.00000031,-0.00000271,0.00000723,0.00000151,-0.0
 0000581,0.00100401,0.00035978,-0.00566646,0.00000229,-0.00000295,-0.00
 000196,0.00000171,0.00000017,0.00000303,-0.00000954,0.00002272,-0.0000
 2212,0.00000340,-0.00000584,-0.00000688,0.00000269,-0.00005336,0.00003
 828,0.00000192,0.00001675,-0.00000384,0.00000298,0.00001442,-0.0000030
 9,-0.00000764,-0.00000357,0.00000534,0.00000245,0.00001343,-0.00000077
 ,-0.00000062,0.00001291,-0.00000610,0.00001586,0.00000685,-0.00000677,
 -0.00101315,-0.00035795,0.00568353,-0.00000663,0.00001029,-0.00000332,
 -0.00003284,0.00001164,0.00001574,0.00002089,0.00000486,0.00000084,0.0
 0002127,-0.00000715,0.00001651,-0.00001193,-0.00003147,-0.00000558\\\@


 EDUCATION DOESN'T COST 
           ... IT PAYS!

 -- POSTMARK, UNIV. OF MISSISSIPPI, DEC 78
 Job cpu time:       0 days  0 hours 19 minutes 39.2 seconds.
 Elapsed time:       0 days  0 hours  4 minutes 58.5 seconds.
 File lengths (MBytes):  RWF=    159 Int=      0 D2E=      0 Chk=     10 Scr=      1
 Normal termination of Gaussian 16 at Mon Nov 13 20:15:48 2017.
