 Entering Gaussian System, Link 0=g09
 Input=da_meta_exo_full-b3lyp_d3bj-dz-ts.gjf
 Output=da_meta_exo_full-b3lyp_d3bj-dz-ts.out
 Initial command:
 /n/sw/g09_D.01/g09/l1.exe "/scratch/ekwan_da_meta_exo_full-b3lyp_d3bj-dz-ts/Gau-30699.inp" -scrdir="/scratch/ekwan_da_meta_exo_full-b3lyp_d3bj-dz-ts/"
 Entering Link 1 = /n/sw/g09_D.01/g09/l1.exe PID=     30700.
  
 Copyright (c) 1988,1990,1992,1993,1995,1998,2003,2009,2013,
            Gaussian, Inc.  All Rights Reserved.
  
 This is part of the Gaussian(R) 09 program.  It is based on
 the Gaussian(R) 03 system (copyright 2003, Gaussian, Inc.),
 the Gaussian(R) 98 system (copyright 1998, Gaussian, Inc.),
 the Gaussian(R) 94 system (copyright 1995, Gaussian, Inc.),
 the Gaussian 92(TM) system (copyright 1992, Gaussian, Inc.),
 the Gaussian 90(TM) system (copyright 1990, Gaussian, Inc.),
 the Gaussian 88(TM) system (copyright 1988, Gaussian, Inc.),
 the Gaussian 86(TM) system (copyright 1986, Carnegie Mellon
 University), and the Gaussian 82(TM) system (copyright 1983,
 Carnegie Mellon University). Gaussian is a federally registered
 trademark of Gaussian, Inc.
  
 This software contains proprietary and confidential information,
 including trade secrets, belonging to Gaussian, Inc.
  
 This software is provided under written license and may be
 used, copied, transmitted, or stored only in accord with that
 written license.
  
 The following legend is applicable only to US Government
 contracts under FAR:
  
                    RESTRICTED RIGHTS LEGEND
  
 Use, reproduction and disclosure by the US Government is
 subject to restrictions as set forth in subparagraphs (a)
 and (c) of the Commercial Computer Software - Restricted
 Rights clause in FAR 52.227-19.
  
 Gaussian, Inc.
 340 Quinnipiac St., Bldg. 40, Wallingford CT 06492
  
  
 ---------------------------------------------------------------
 Warning -- This program may not be used in any manner that
 competes with the business of Gaussian, Inc. or will provide
 assistance to any competitor of Gaussian, Inc.  The licensee
 of this program is prohibited from giving any competitor of
 Gaussian, Inc. access to this program.  By using this program,
 the user acknowledges that Gaussian, Inc. is engaged in the
 business of creating and licensing software in the field of
 computational chemistry and represents and warrants to the
 licensee that it is not a competitor of Gaussian, Inc. and that
 it will not use this program in any manner prohibited above.
 ---------------------------------------------------------------
  

 Cite this work as:
 Gaussian 09, Revision D.01,
 M. J. Frisch, G. W. Trucks, H. B. Schlegel, G. E. Scuseria, 
 M. A. Robb, J. R. Cheeseman, G. Scalmani, V. Barone, B. Mennucci, 
 G. A. Petersson, H. Nakatsuji, M. Caricato, X. Li, H. P. Hratchian, 
 A. F. Izmaylov, J. Bloino, G. Zheng, J. L. Sonnenberg, M. Hada, 
 M. Ehara, K. Toyota, R. Fukuda, J. Hasegawa, M. Ishida, T. Nakajima, 
 Y. Honda, O. Kitao, H. Nakai, T. Vreven, J. A. Montgomery, Jr., 
 J. E. Peralta, F. Ogliaro, M. Bearpark, J. J. Heyd, E. Brothers, 
 K. N. Kudin, V. N. Staroverov, T. Keith, R. Kobayashi, J. Normand, 
 K. Raghavachari, A. Rendell, J. C. Burant, S. S. Iyengar, J. Tomasi, 
 M. Cossi, N. Rega, J. M. Millam, M. Klene, J. E. Knox, J. B. Cross, 
 V. Bakken, C. Adamo, J. Jaramillo, R. Gomperts, R. E. Stratmann, 
 O. Yazyev, A. J. Austin, R. Cammi, C. Pomelli, J. W. Ochterski, 
 R. L. Martin, K. Morokuma, V. G. Zakrzewski, G. A. Voth, 
 P. Salvador, J. J. Dannenberg, S. Dapprich, A. D. Daniels, 
 O. Farkas, J. B. Foresman, J. V. Ortiz, J. Cioslowski, 
 and D. J. Fox, Gaussian, Inc., Wallingford CT, 2013.
 
 ******************************************
 Gaussian 09:  EM64L-G09RevD.01 24-Apr-2013
                20-Mar-2017 
 ******************************************
 %nprocshared=8
 Will use up to    8 processors via shared memory.
 %mem=3GB
 ----------------------------------------------------------------------
 #p b3lyp empiricaldispersion=gd3bj cc-pVDZ scrf=(pcm,solvent=1,4-dioxa
 ne) opt=(ts,calcfc,maxstep=5,noeigentest) freq=noraman temperature=383
 ----------------------------------------------------------------------
 1/5=1,8=5,10=4,11=1,14=-1,18=20,26=3,38=1,112=383000/1,3;
 2/9=110,12=2,17=6,18=5,40=1/2;
 3/5=16,11=2,16=1,25=1,30=1,70=2201,71=2,72=31,74=-5,124=41,140=1/1,2,3;
 4//1;
 5/5=2,38=5,53=31/2;
 8/6=4,10=90,11=11/1;
 11/6=1,8=1,9=11,15=111,16=1/1,2,10;
 10/6=1,13=1/2;
 6/7=2,8=2,9=2,10=2,28=1/1;
 7/10=1,18=20,25=1/1,2,3,16;
 1/5=1,8=5,10=4,11=1,14=-1,18=20,26=3/3(2);
 2/9=110/2;
 99//99;
 2/9=110/2;
 3/5=16,11=2,16=1,25=1,30=1,70=2205,71=1,72=31,74=-5,124=41/1,2,3;
 4/5=5,16=3,69=1/1;
 5/5=2,38=5,53=31/2;
 7//1,2,3,16;
 1/5=1,8=5,11=1,14=-1,18=20,26=3/3(-5);
 2/9=110/2;
 6/7=2,8=2,9=2,10=2,19=2,28=1/1;
 99/9=1/99;
 Leave Link    1 at Mon Mar 20 17:38:54 2017, MaxMem=   402653184 cpu:         0.9
 (Enter /n/sw/g09_D.01/g09/l101.exe)
 -------------------
 Title Card Required
 -------------------
 Symbolic Z-matrix:
 Charge =  0 Multiplicity = 1
 C                    -0.61123   2.51306  -0.44285 
 H                    -0.5595    3.52097  -0.03645 
 C                    -1.8496    1.9086   -0.56653 
 H                    -2.75614   2.45485  -0.32443 
 H                    -1.99083   1.06165  -1.22803 
 C                     0.59069   1.81034  -0.58159 
 H                     1.52088   2.29075  -0.30401 
 C                     0.59775   0.43047  -0.80247 
 H                    -0.19318  -0.01934  -1.39074 
 N                     1.78489  -0.32585  -0.88509 
 H                     1.73735  -1.21322  -1.36633 
 C                     2.88452  -0.15303  -0.08272 
 O                     3.06692   0.76211   0.69993 
 O                     3.75895  -1.16601  -0.30091 
 C                    -1.68228   0.31429   1.09254 
 H                    -1.86467   1.06774   1.84784 
 C                    -0.42036  -0.27025   0.96797 
 H                     0.37335   0.0426    1.63684 
 H                    -0.35398  -1.28974   0.60525 
 C                    -2.90099  -0.36794   0.63583 
 O                    -4.02926  -0.14737   1.03938 
 O                    -2.64071  -1.27852  -0.34759 
 C                    -3.78956  -1.97455  -0.84981 
 H                    -4.50879  -1.27207  -1.27923 
 H                    -3.41173  -2.65095  -1.61725 
 H                    -4.27911  -2.53817  -0.05132 
 C                     4.96944  -1.09099   0.46758 
 H                     4.7482   -1.12025   1.53737 
 H                     5.51404  -0.17168   0.23819 
 C                     5.79304  -2.32433   0.05264 
 H                     6.71907  -2.33163   0.58866 
 H                     5.24267  -3.21348   0.27935 
 H                     5.98962  -2.28479  -0.9984 
 
 Add virtual bond connecting atoms C15        and C3         Dist= 4.36D+00.
 Add virtual bond connecting atoms C17        and C8         Dist= 4.08D+00.
 NAtoms=     33 NQM=       33 NQMF=       0 NMMI=      0 NMMIF=      0
                NMic=       0 NMicF=      0.
                    Isotopes and Nuclear Properties:
 (Nuclear quadrupole moments (NQMom) in fm**2, nuclear magnetic moments (NMagM)
  in nuclear magnetons)

  Atom         1           2           3           4           5           6           7           8           9          10
 IAtWgt=          12           1          12           1           1          12           1          12           1          14
 AtmWgt=  12.0000000   1.0078250  12.0000000   1.0078250   1.0078250  12.0000000   1.0078250  12.0000000   1.0078250  14.0030740
 NucSpn=           0           1           0           1           1           0           1           0           1           2
 AtZEff=   0.0000000   0.0000000   0.0000000   0.0000000   0.0000000   0.0000000   0.0000000   0.0000000   0.0000000   0.0000000
 NQMom=    0.0000000   0.0000000   0.0000000   0.0000000   0.0000000   0.0000000   0.0000000   0.0000000   0.0000000   2.0440000
 NMagM=    0.0000000   2.7928460   0.0000000   2.7928460   2.7928460   0.0000000   2.7928460   0.0000000   2.7928460   0.4037610
 AtZNuc=   6.0000000   1.0000000   6.0000000   1.0000000   1.0000000   6.0000000   1.0000000   6.0000000   1.0000000   7.0000000

  Atom        11          12          13          14          15          16          17          18          19          20
 IAtWgt=           1          12          16          16          12           1          12           1           1          12
 AtmWgt=   1.0078250  12.0000000  15.9949146  15.9949146  12.0000000   1.0078250  12.0000000   1.0078250   1.0078250  12.0000000
 NucSpn=           1           0           0           0           0           1           0           1           1           0
 AtZEff=   0.0000000   0.0000000   0.0000000   0.0000000   0.0000000   0.0000000   0.0000000   0.0000000   0.0000000   0.0000000
 NQMom=    0.0000000   0.0000000   0.0000000   0.0000000   0.0000000   0.0000000   0.0000000   0.0000000   0.0000000   0.0000000
 NMagM=    2.7928460   0.0000000   0.0000000   0.0000000   0.0000000   2.7928460   0.0000000   2.7928460   2.7928460   0.0000000
 AtZNuc=   1.0000000   6.0000000   8.0000000   8.0000000   6.0000000   1.0000000   6.0000000   1.0000000   1.0000000   6.0000000

  Atom        21          22          23          24          25          26          27          28          29          30
 IAtWgt=          16          16          12           1           1           1          12           1           1          12
 AtmWgt=  15.9949146  15.9949146  12.0000000   1.0078250   1.0078250   1.0078250  12.0000000   1.0078250   1.0078250  12.0000000
 NucSpn=           0           0           0           1           1           1           0           1           1           0
 AtZEff=   0.0000000   0.0000000   0.0000000   0.0000000   0.0000000   0.0000000   0.0000000   0.0000000   0.0000000   0.0000000
 NQMom=    0.0000000   0.0000000   0.0000000   0.0000000   0.0000000   0.0000000   0.0000000   0.0000000   0.0000000   0.0000000
 NMagM=    0.0000000   0.0000000   0.0000000   2.7928460   2.7928460   2.7928460   0.0000000   2.7928460   2.7928460   0.0000000
 AtZNuc=   8.0000000   8.0000000   6.0000000   1.0000000   1.0000000   1.0000000   6.0000000   1.0000000   1.0000000   6.0000000

  Atom        31          32          33
 IAtWgt=           1           1           1
 AtmWgt=   1.0078250   1.0078250   1.0078250
 NucSpn=           1           1           1
 AtZEff=   0.0000000   0.0000000   0.0000000
 NQMom=    0.0000000   0.0000000   0.0000000
 NMagM=    2.7928460   2.7928460   2.7928460
 AtZNuc=   1.0000000   1.0000000   1.0000000
 Leave Link  101 at Mon Mar 20 17:38:54 2017, MaxMem=   402653184 cpu:         2.0
 (Enter /n/sw/g09_D.01/g09/l103.exe)

 GradGradGradGradGradGradGradGradGradGradGradGradGradGradGradGradGradGrad
 Berny optimization.
 Initialization pass.
                           ----------------------------
                           !    Initial Parameters    !
                           ! (Angstroms and Degrees)  !
 --------------------------                            --------------------------
 ! Name  Definition              Value          Derivative Info.                !
 --------------------------------------------------------------------------------
 ! R1    R(1,2)                  1.088          calculate D2E/DX2 analytically  !
 ! R2    R(1,3)                  1.3836         calculate D2E/DX2 analytically  !
 ! R3    R(1,6)                  1.3992         calculate D2E/DX2 analytically  !
 ! R4    R(3,4)                  1.0857         calculate D2E/DX2 analytically  !
 ! R5    R(3,5)                  1.0839         calculate D2E/DX2 analytically  !
 ! R6    R(3,15)                 2.307          calculate D2E/DX2 analytically  !
 ! R7    R(6,7)                  1.0831         calculate D2E/DX2 analytically  !
 ! R8    R(6,8)                  1.3975         calculate D2E/DX2 analytically  !
 ! R9    R(8,9)                  1.0835         calculate D2E/DX2 analytically  !
 ! R10   R(8,10)                 1.41           calculate D2E/DX2 analytically  !
 ! R11   R(8,17)                 2.1592         calculate D2E/DX2 analytically  !
 ! R12   R(10,11)                1.0106         calculate D2E/DX2 analytically  !
 ! R13   R(10,12)                1.3722         calculate D2E/DX2 analytically  !
 ! R14   R(12,13)                1.2179         calculate D2E/DX2 analytically  !
 ! R15   R(12,14)                1.3559         calculate D2E/DX2 analytically  !
 ! R16   R(14,27)                1.4358         calculate D2E/DX2 analytically  !
 ! R17   R(15,16)                1.0823         calculate D2E/DX2 analytically  !
 ! R18   R(15,17)                1.3963         calculate D2E/DX2 analytically  !
 ! R19   R(15,20)                1.4694         calculate D2E/DX2 analytically  !
 ! R20   R(17,18)                1.0841         calculate D2E/DX2 analytically  !
 ! R21   R(17,19)                1.0841         calculate D2E/DX2 analytically  !
 ! R22   R(20,21)                1.2184         calculate D2E/DX2 analytically  !
 ! R23   R(20,22)                1.3653         calculate D2E/DX2 analytically  !
 ! R24   R(22,23)                1.4341         calculate D2E/DX2 analytically  !
 ! R25   R(23,24)                1.0932         calculate D2E/DX2 analytically  !
 ! R26   R(23,25)                1.0905         calculate D2E/DX2 analytically  !
 ! R27   R(23,26)                1.0931         calculate D2E/DX2 analytically  !
 ! R28   R(27,28)                1.0928         calculate D2E/DX2 analytically  !
 ! R29   R(27,29)                1.0929         calculate D2E/DX2 analytically  !
 ! R30   R(27,30)                1.54           calculate D2E/DX2 analytically  !
 ! R31   R(30,31)                1.07           calculate D2E/DX2 analytically  !
 ! R32   R(30,32)                1.07           calculate D2E/DX2 analytically  !
 ! R33   R(30,33)                1.07           calculate D2E/DX2 analytically  !
 ! A1    A(2,1,3)              118.7299         calculate D2E/DX2 analytically  !
 ! A2    A(2,1,6)              117.4816         calculate D2E/DX2 analytically  !
 ! A3    A(3,1,6)              122.7245         calculate D2E/DX2 analytically  !
 ! A4    A(1,3,4)              120.5042         calculate D2E/DX2 analytically  !
 ! A5    A(1,3,5)              120.8344         calculate D2E/DX2 analytically  !
 ! A6    A(1,3,15)              99.9458         calculate D2E/DX2 analytically  !
 ! A7    A(4,3,5)              114.8611         calculate D2E/DX2 analytically  !
 ! A8    A(4,3,15)             104.3528         calculate D2E/DX2 analytically  !
 ! A9    A(5,3,15)              84.7407         calculate D2E/DX2 analytically  !
 ! A10   A(1,6,7)              119.3128         calculate D2E/DX2 analytically  !
 ! A11   A(1,6,8)              121.0596         calculate D2E/DX2 analytically  !
 ! A12   A(7,6,8)              118.3031         calculate D2E/DX2 analytically  !
 ! A13   A(6,8,9)              119.4751         calculate D2E/DX2 analytically  !
 ! A14   A(6,8,10)             122.8987         calculate D2E/DX2 analytically  !
 ! A15   A(6,8,17)             100.8628         calculate D2E/DX2 analytically  !
 ! A16   A(9,8,10)             111.107          calculate D2E/DX2 analytically  !
 ! A17   A(9,8,17)              88.066          calculate D2E/DX2 analytically  !
 ! A18   A(10,8,17)            105.722          calculate D2E/DX2 analytically  !
 ! A19   A(8,10,11)            117.3412         calculate D2E/DX2 analytically  !
 ! A20   A(8,10,12)            124.9519         calculate D2E/DX2 analytically  !
 ! A21   A(11,10,12)           115.2613         calculate D2E/DX2 analytically  !
 ! A22   A(10,12,13)           126.1873         calculate D2E/DX2 analytically  !
 ! A23   A(10,12,14)           109.1861         calculate D2E/DX2 analytically  !
 ! A24   A(13,12,14)           124.6251         calculate D2E/DX2 analytically  !
 ! A25   A(12,14,27)           114.744          calculate D2E/DX2 analytically  !
 ! A26   A(3,15,16)             90.4895         calculate D2E/DX2 analytically  !
 ! A27   A(3,15,17)            106.8994         calculate D2E/DX2 analytically  !
 ! A28   A(3,15,20)             92.1309         calculate D2E/DX2 analytically  !
 ! A29   A(16,15,17)           120.397          calculate D2E/DX2 analytically  !
 ! A30   A(16,15,20)           113.5987         calculate D2E/DX2 analytically  !
 ! A31   A(17,15,20)           121.8343         calculate D2E/DX2 analytically  !
 ! A32   A(8,17,15)            111.3122         calculate D2E/DX2 analytically  !
 ! A33   A(8,17,18)             93.8432         calculate D2E/DX2 analytically  !
 ! A34   A(8,17,19)             90.113          calculate D2E/DX2 analytically  !
 ! A35   A(15,17,18)           119.0671         calculate D2E/DX2 analytically  !
 ! A36   A(15,17,19)           118.6112         calculate D2E/DX2 analytically  !
 ! A37   A(18,17,19)           115.6562         calculate D2E/DX2 analytically  !
 ! A38   A(15,20,21)           125.5227         calculate D2E/DX2 analytically  !
 ! A39   A(15,20,22)           112.0496         calculate D2E/DX2 analytically  !
 ! A40   A(21,20,22)           122.4016         calculate D2E/DX2 analytically  !
 ! A41   A(20,22,23)           115.0394         calculate D2E/DX2 analytically  !
 ! A42   A(22,23,24)           110.6542         calculate D2E/DX2 analytically  !
 ! A43   A(22,23,25)           105.661          calculate D2E/DX2 analytically  !
 ! A44   A(22,23,26)           110.6839         calculate D2E/DX2 analytically  !
 ! A45   A(24,23,25)           110.4915         calculate D2E/DX2 analytically  !
 ! A46   A(24,23,26)           108.8806         calculate D2E/DX2 analytically  !
 ! A47   A(25,23,26)           110.4518         calculate D2E/DX2 analytically  !
 ! A48   A(14,27,28)           110.6023         calculate D2E/DX2 analytically  !
 ! A49   A(14,27,29)           110.593          calculate D2E/DX2 analytically  !
 ! A50   A(14,27,30)           105.3568         calculate D2E/DX2 analytically  !
 ! A51   A(28,27,29)           109.201          calculate D2E/DX2 analytically  !
 ! A52   A(28,27,30)           110.5237         calculate D2E/DX2 analytically  !
 ! A53   A(29,27,30)           110.5255         calculate D2E/DX2 analytically  !
 ! A54   A(27,30,31)           109.4712         calculate D2E/DX2 analytically  !
 ! A55   A(27,30,32)           109.4712         calculate D2E/DX2 analytically  !
 ! A56   A(27,30,33)           109.4712         calculate D2E/DX2 analytically  !
 ! A57   A(31,30,32)           109.4713         calculate D2E/DX2 analytically  !
 ! A58   A(31,30,33)           109.4712         calculate D2E/DX2 analytically  !
 ! A59   A(32,30,33)           109.4712         calculate D2E/DX2 analytically  !
 ! D1    D(2,1,3,4)              4.0165         calculate D2E/DX2 analytically  !
 ! D2    D(2,1,3,5)            160.9372         calculate D2E/DX2 analytically  !
 ! D3    D(2,1,3,15)          -109.2751         calculate D2E/DX2 analytically  !
 ! D4    D(6,1,3,4)            171.9144         calculate D2E/DX2 analytically  !
 ! D5    D(6,1,3,5)            -31.1649         calculate D2E/DX2 analytically  !
 ! D6    D(6,1,3,15)            58.6228         calculate D2E/DX2 analytically  !
 ! D7    D(2,1,6,7)             -1.2274         calculate D2E/DX2 analytically  !
 ! D8    D(2,1,6,8)            165.4092         calculate D2E/DX2 analytically  !
 ! D9    D(3,1,6,7)           -169.2674         calculate D2E/DX2 analytically  !
 ! D10   D(3,1,6,8)             -2.6308         calculate D2E/DX2 analytically  !
 ! D11   D(1,3,15,16)           77.263          calculate D2E/DX2 analytically  !
 ! D12   D(1,3,15,17)          -44.8398         calculate D2E/DX2 analytically  !
 ! D13   D(1,3,15,20)         -169.1002         calculate D2E/DX2 analytically  !
 ! D14   D(4,3,15,16)          -47.9642         calculate D2E/DX2 analytically  !
 ! D15   D(4,3,15,17)         -170.067          calculate D2E/DX2 analytically  !
 ! D16   D(4,3,15,20)           65.6726         calculate D2E/DX2 analytically  !
 ! D17   D(5,3,15,16)         -162.3102         calculate D2E/DX2 analytically  !
 ! D18   D(5,3,15,17)           75.5871         calculate D2E/DX2 analytically  !
 ! D19   D(5,3,15,20)          -48.6734         calculate D2E/DX2 analytically  !
 ! D20   D(1,6,8,9)             33.9529         calculate D2E/DX2 analytically  !
 ! D21   D(1,6,8,10)          -176.9231         calculate D2E/DX2 analytically  !
 ! D22   D(1,6,8,17)           -60.0029         calculate D2E/DX2 analytically  !
 ! D23   D(7,6,8,9)           -159.2792         calculate D2E/DX2 analytically  !
 ! D24   D(7,6,8,10)           -10.1553         calculate D2E/DX2 analytically  !
 ! D25   D(7,6,8,17)           106.765          calculate D2E/DX2 analytically  !
 ! D26   D(6,8,10,11)         -158.2198         calculate D2E/DX2 analytically  !
 ! D27   D(6,8,10,12)           40.4227         calculate D2E/DX2 analytically  !
 ! D28   D(9,8,10,11)           -6.8327         calculate D2E/DX2 analytically  !
 ! D29   D(9,8,10,12)         -168.1902         calculate D2E/DX2 analytically  !
 ! D30   D(17,8,10,11)          87.2433         calculate D2E/DX2 analytically  !
 ! D31   D(17,8,10,12)         -74.1141         calculate D2E/DX2 analytically  !
 ! D32   D(6,8,17,15)           56.8338         calculate D2E/DX2 analytically  !
 ! D33   D(6,8,17,18)          -66.4565         calculate D2E/DX2 analytically  !
 ! D34   D(6,8,17,19)          177.8169         calculate D2E/DX2 analytically  !
 ! D35   D(9,8,17,15)          -62.8247         calculate D2E/DX2 analytically  !
 ! D36   D(9,8,17,18)          173.8851         calculate D2E/DX2 analytically  !
 ! D37   D(9,8,17,19)           58.1584         calculate D2E/DX2 analytically  !
 ! D38   D(10,8,17,15)        -174.2208         calculate D2E/DX2 analytically  !
 ! D39   D(10,8,17,18)          62.489          calculate D2E/DX2 analytically  !
 ! D40   D(10,8,17,19)         -53.2377         calculate D2E/DX2 analytically  !
 ! D41   D(8,10,12,13)          -9.2831         calculate D2E/DX2 analytically  !
 ! D42   D(8,10,12,14)         171.1471         calculate D2E/DX2 analytically  !
 ! D43   D(11,10,12,13)       -170.984          calculate D2E/DX2 analytically  !
 ! D44   D(11,10,12,14)          9.4462         calculate D2E/DX2 analytically  !
 ! D45   D(10,12,14,27)        179.0825         calculate D2E/DX2 analytically  !
 ! D46   D(13,12,14,27)         -0.4956         calculate D2E/DX2 analytically  !
 ! D47   D(12,14,27,28)         60.7498         calculate D2E/DX2 analytically  !
 ! D48   D(12,14,27,29)        -60.3537         calculate D2E/DX2 analytically  !
 ! D49   D(12,14,27,30)       -179.8006         calculate D2E/DX2 analytically  !
 ! D50   D(3,15,17,8)           -6.6468         calculate D2E/DX2 analytically  !
 ! D51   D(3,15,17,18)         100.7605         calculate D2E/DX2 analytically  !
 ! D52   D(3,15,17,19)        -109.0749         calculate D2E/DX2 analytically  !
 ! D53   D(16,15,17,8)        -107.5164         calculate D2E/DX2 analytically  !
 ! D54   D(16,15,17,18)         -0.1091         calculate D2E/DX2 analytically  !
 ! D55   D(16,15,17,19)        150.0554         calculate D2E/DX2 analytically  !
 ! D56   D(20,15,17,8)          96.9074         calculate D2E/DX2 analytically  !
 ! D57   D(20,15,17,18)       -155.6853         calculate D2E/DX2 analytically  !
 ! D58   D(20,15,17,19)         -5.5207         calculate D2E/DX2 analytically  !
 ! D59   D(3,15,20,21)         -91.7133         calculate D2E/DX2 analytically  !
 ! D60   D(3,15,20,22)          86.4582         calculate D2E/DX2 analytically  !
 ! D61   D(16,15,20,21)         -0.2473         calculate D2E/DX2 analytically  !
 ! D62   D(16,15,20,22)        177.9243         calculate D2E/DX2 analytically  !
 ! D63   D(17,15,20,21)        156.8484         calculate D2E/DX2 analytically  !
 ! D64   D(17,15,20,22)        -24.9801         calculate D2E/DX2 analytically  !
 ! D65   D(15,20,22,23)       -179.4646         calculate D2E/DX2 analytically  !
 ! D66   D(21,20,22,23)         -1.2272         calculate D2E/DX2 analytically  !
 ! D67   D(20,22,23,24)         60.2766         calculate D2E/DX2 analytically  !
 ! D68   D(20,22,23,25)        179.8948         calculate D2E/DX2 analytically  !
 ! D69   D(20,22,23,26)        -60.5185         calculate D2E/DX2 analytically  !
 ! D70   D(14,27,30,31)        179.8078         calculate D2E/DX2 analytically  !
 ! D71   D(14,27,30,32)        -60.1922         calculate D2E/DX2 analytically  !
 ! D72   D(14,27,30,33)         59.8078         calculate D2E/DX2 analytically  !
 ! D73   D(28,27,30,31)        -60.6904         calculate D2E/DX2 analytically  !
 ! D74   D(28,27,30,32)         59.3096         calculate D2E/DX2 analytically  !
 ! D75   D(28,27,30,33)        179.3096         calculate D2E/DX2 analytically  !
 ! D76   D(29,27,30,31)         60.3161         calculate D2E/DX2 analytically  !
 ! D77   D(29,27,30,32)       -179.6839         calculate D2E/DX2 analytically  !
 ! D78   D(29,27,30,33)        -59.6839         calculate D2E/DX2 analytically  !
 --------------------------------------------------------------------------------
 Trust Radius=5.00D-02 FncErr=1.00D-07 GrdErr=1.00D-06
 Number of steps in this run=    180 maximum allowed number of steps=    198.
 Search for a saddle point of order  1.
 GradGradGradGradGradGradGradGradGradGradGradGradGradGradGradGradGradGrad

 Leave Link  103 at Mon Mar 20 17:38:54 2017, MaxMem=   402653184 cpu:         0.1
 (Enter /n/sw/g09_D.01/g09/l202.exe)
                          Input orientation:                          
 ---------------------------------------------------------------------
 Center     Atomic      Atomic             Coordinates (Angstroms)
 Number     Number       Type             X           Y           Z
 ---------------------------------------------------------------------
      1          6           0       -0.611233    2.513058   -0.442850
      2          1           0       -0.559500    3.520970   -0.036453
      3          6           0       -1.849601    1.908604   -0.566530
      4          1           0       -2.756138    2.454853   -0.324433
      5          1           0       -1.990832    1.061654   -1.228025
      6          6           0        0.590692    1.810343   -0.581588
      7          1           0        1.520884    2.290748   -0.304012
      8          6           0        0.597752    0.430465   -0.802472
      9          1           0       -0.193183   -0.019336   -1.390739
     10          7           0        1.784892   -0.325853   -0.885091
     11          1           0        1.737354   -1.213217   -1.366334
     12          6           0        2.884518   -0.153033   -0.082721
     13          8           0        3.066921    0.762107    0.699925
     14          8           0        3.758953   -1.166006   -0.300912
     15          6           0       -1.682280    0.314287    1.092538
     16          1           0       -1.864674    1.067738    1.847836
     17          6           0       -0.420362   -0.270245    0.967966
     18          1           0        0.373352    0.042604    1.636838
     19          1           0       -0.353975   -1.289742    0.605250
     20          6           0       -2.900990   -0.367937    0.635828
     21          8           0       -4.029261   -0.147369    1.039379
     22          8           0       -2.640711   -1.278516   -0.347590
     23          6           0       -3.789556   -1.974550   -0.849811
     24          1           0       -4.508788   -1.272067   -1.279226
     25          1           0       -3.411731   -2.650950   -1.617254
     26          1           0       -4.279109   -2.538165   -0.051319
     27          6           0        4.969440   -1.090995    0.467580
     28          1           0        4.748197   -1.120253    1.537372
     29          1           0        5.514040   -0.171677    0.238188
     30          6           0        5.793041   -2.324326    0.052639
     31          1           0        6.719067   -2.331631    0.588663
     32          1           0        5.242674   -3.213481    0.279355
     33          1           0        5.989623   -2.284791   -0.998405
 ---------------------------------------------------------------------
                    Distance matrix (angstroms):
                    1          2          3          4          5
     1  C    0.000000
     2  H    1.087990   0.000000
     3  C    1.383552   2.131916   0.000000
     4  H    2.148960   2.458609   1.085729   0.000000
     5  H    2.150899   3.084930   1.083903   1.828435   0.000000
     6  C    1.399171   2.132219   2.442317   3.418010   2.764540
     7  H    2.148167   2.431673   3.402223   4.280218   3.833617
     8  C    2.434783   3.387807   2.868815   3.946549   2.698196
     9  H    2.736106   3.808155   2.672077   3.718516   2.103938
    10  N    3.741177   4.584147   4.278296   5.354215   4.037186
    11  H    4.500423   5.427398   4.822002   5.893366   4.369615
    12  C    4.411123   5.036040   5.186164   6.219043   5.153273
    13  O    4.230908   4.615681   5.204859   6.150017   5.421032
    14  O    5.714384   6.378614   6.401536   7.453696   6.235546
    15  C    2.887759   3.580233   2.307022   2.782625   2.457392
    16  H    2.984511   3.357435   2.556647   2.727187   3.078453
    17  C    3.126277   3.924478   3.024035   3.814748   3.010433
    18  H    3.376041   3.971038   3.643941   4.411262   3.851658
    19  H    3.952971   4.857672   3.720132   4.544963   3.401362
    20  C    3.834927   4.588914   2.780957   2.985168   2.519140
    21  O    4.577968   5.162690   3.399542   3.201935   3.279947
    22  O    4.301615   5.240545   3.291128   3.735225   2.583390
    23  C    5.514162   6.426162   4.350007   4.578601   3.549224
    24  H    5.497057   6.333606   4.206647   4.227688   3.433508
    25  H    5.990742   6.980455   4.932931   5.307581   3.994231
    26  H    6.254715   7.109770   5.093300   5.227261   4.424878
    27  C    6.705370   7.217579   7.521057   8.537264   7.480265
    28  H    6.770947   7.224232   7.558526   8.518377   7.604121
    29  H    6.722394   7.113294   7.694046   8.695461   7.745579
    30  C    8.041176   8.633087   8.758484   9.801591   8.584500
    31  H    8.846939   9.360622   9.629960  10.654749   9.522451
    32  H    8.220891   8.894818   8.789291   9.822197   8.536544
    33  H    8.179199   8.804728   8.900815   9.970296   8.656736
                    6          7          8          9         10
     6  C    0.000000
     7  H    1.083095   0.000000
     8  C    1.397463   2.135717   0.000000
     9  H    2.148700   3.074978   1.083493   0.000000
    10  N    2.466082   2.693317   1.410016   2.064561   0.000000
    11  H    3.327548   3.667855   2.078058   2.270005   1.010579
    12  C    3.060286   2.807229   2.467349   3.346794   1.372167
    13  O    2.978722   2.394757   2.909292   3.950925   2.310743
    14  O    4.356066   4.118023   3.576797   4.256989   2.223520
    15  C    3.194884   4.014600   2.967003   2.914683   4.042534
    16  H    3.533042   4.193830   3.673390   3.803154   4.767632
    17  C    2.784276   3.456161   2.159167   2.382867   2.880982
    18  H    2.844917   3.184004   2.480126   3.080750   2.913474
    19  H    3.451305   4.142676   2.417970   2.371446   2.779379
    20  C    4.291719   5.244509   3.866180   3.400105   4.926708
    21  O    5.272963   6.209124   5.013537   4.542836   6.126974
    22  O    4.476357   5.482738   3.689875   2.943482   4.558776
    23  C    5.795164   6.833113   5.003480   4.129088   5.813254
    24  H    5.999387   7.071184   5.403949   4.495133   6.376603
    25  H    6.082362   7.104623   5.122006   4.163623   5.739950
    26  H    6.550242   7.551303   5.758539   4.983306   6.508580
    27  C    5.356487   4.891225   4.799951   5.590571   3.543516
    28  H    5.510284   5.043924   5.010568   5.848341   3.909038
    29  H    5.370269   4.722585   5.061169   5.937087   3.897701
    30  C    6.675490   6.299002   5.942315   6.575043   4.575859
    31  H    7.488819   7.013156   6.858201   7.552744   5.526407
    32  H    6.900795   6.669976   6.001999   6.522294   4.653019
    33  H    6.789132   6.433302   6.040139   6.596461   4.640048
                   11         12         13         14         15
    11  H    0.000000
    12  C    2.021791   0.000000
    13  O    3.152631   1.217903   0.000000
    14  O    2.285654   1.355861   2.279957   0.000000
    15  C    4.480314   4.738699   4.786397   5.808613   0.000000
    16  H    5.339312   5.269929   5.072646   6.421208   1.082327
    17  C    3.315704   3.469858   3.646744   4.458600   1.396293
    18  H    3.529395   3.049772   2.941225   4.083859   2.143758
    19  H    2.875179   3.500464   3.990185   4.213385   2.138867
    20  C    5.122244   5.833918   6.074296   6.772683   1.469445
    21  O    6.338559   7.004247   7.162274   7.968079   2.392545
    22  O    4.495504   5.644911   6.151300   6.400823   2.351506
    23  C    5.602960   6.960576   7.543358   7.611506   3.667711
    24  H    6.247027   7.572637   8.089887   8.326097   4.016333
    25  H    5.351926   6.945296   7.680573   7.440197   4.373397
    26  H    6.299411   7.550324   8.088283   8.158159   4.023483
    27  C    3.718139   2.351490   2.665999   1.435787   6.827208
    28  H    4.183937   2.652078   2.659189   2.088058   6.603546
    29  H    4.233516   2.649097   2.659614   2.087977   7.263133
    30  C    4.438090   3.632126   4.168546   2.367323   7.995254
    31  H    5.467205   4.461032   4.787668   3.303377   8.822551
    32  H    4.358511   3.880508   4.551492   2.594280   7.814180
    33  H    4.400618   3.876151   4.550835   2.591151   8.365724
                   16         17         18         19         20
    16  H    0.000000
    17  C    2.156480   0.000000
    18  H    2.470664   1.084088   0.000000
    19  H    3.063322   1.084133   1.835299   0.000000
    20  C    2.145711   2.504671   3.448461   2.708864   0.000000
    21  O    2.610656   3.611696   4.447027   3.873140   1.218400
    22  O    3.305607   2.770785   3.842901   2.477336   1.365288
    23  C    4.498665   4.190518   5.251870   3.793334   2.361753
    24  H    4.716412   4.771661   5.836701   4.562240   2.658928
    25  H    5.313085   4.615128   5.671966   4.017746   3.247981
    26  H    4.736963   4.590461   5.581723   4.170890   2.661066
    27  C    7.298654   5.474850   4.876088   5.328902   7.905365
    28  H    6.972357   5.268846   4.527847   5.189387   7.738787
    29  H    7.653270   5.979918   5.331868   5.984848   8.426705
    30  C    8.565596   6.607832   6.122505   6.257919   8.930495
    31  H    9.317823   7.440741   6.855929   7.149387   9.818544
    32  H    8.444132   6.419252   6.012915   5.927011   8.633855
    33  H    9.001695   7.000923   6.625992   6.618389   9.240565
                   21         22         23         24         25
    21  O    0.000000
    22  O    2.265226   0.000000
    23  C    2.639145   1.434062   0.000000
    24  H    2.621225   2.087510   1.093240   0.000000
    25  H    3.702291   2.022398   1.090522   1.794189   0.000000
    26  H    2.639688   2.087784   1.093121   1.778626   1.793660
    27  C    9.066091   7.655982   8.901472   9.639550   8.776333
    28  H    8.845240   7.627194   8.906273   9.677192   8.881392
    29  H    9.576904   8.250345   9.538920  10.196592   9.447690
    30  C   10.108927   8.507765   9.631351  10.440727   9.360718
    31  H   10.977281   9.465256  10.612628  11.431378  10.373095
    32  H    9.795277   8.141554   9.186465  10.064257   8.877629
    33  H   10.445055   8.713140   9.785227  10.550882   9.428812
                   26         27         28         29         30
    26  H    0.000000
    27  C    9.375458   0.000000
    28  H    9.275056   1.092822   0.000000
    29  H   10.079179   1.092866   1.781626   0.000000
    30  C   10.074956   1.540000   2.178514   2.178570   0.000000
    31  H   11.018716   2.148263   2.500363   2.498064   1.070000
    32  H    9.551426   2.148263   2.491730   3.054162   1.070000
    33  H   10.315427   2.148263   3.054088   2.494112   1.070000
                   31         32         33
    31  H    0.000000
    32  H    1.747303   0.000000
    33  H    1.747303   1.747303   0.000000
 Stoichiometry    C11H17NO4
 Framework group  C1[X(C11H17NO4)]
 Deg. of freedom    93
 Full point group                 C1      NOp   1
 Largest Abelian subgroup         C1      NOp   1
 Largest concise Abelian subgroup C1      NOp   1
                         Standard orientation:                         
 ---------------------------------------------------------------------
 Center     Atomic      Atomic             Coordinates (Angstroms)
 Number     Number       Type             X           Y           Z
 ---------------------------------------------------------------------
      1          6           0       -1.290133    2.548413   -0.436950
      2          1           0       -1.351039    3.554908   -0.028319
      3          6           0       -2.453378    1.809859   -0.561908
      4          1           0       -3.415121    2.251035   -0.318551
      5          1           0       -2.499444    0.953899   -1.225274
      6          6           0       -0.017360    1.984473   -0.577311
      7          1           0        0.853517    2.565035   -0.298717
      8          6           0        0.143522    0.614485   -0.801259
      9          1           0       -0.592475    0.080554   -1.390482
     10          7           0        1.407599   -0.004496   -0.885619
     11          1           0        1.459203   -0.890563   -1.368829
     12          6           0        2.481322    0.288148   -0.082925
     13          8           0        2.560733    1.216199    0.701742
     14          8           0        3.463236   -0.620472   -0.303411
     15          6           0       -2.108750    0.240511    1.093607
     16          1           0       -2.373831    0.967248    1.850586
     17          6           0       -0.789539   -0.199323    0.967672
     18          1           0       -0.035479    0.198644    1.637195
     19          1           0       -0.609945   -1.204249    0.602689
     20          6           0       -3.243885   -0.572401    0.635447
     21          8           0       -4.389598   -0.479964    1.039546
     22          8           0       -2.883945   -1.446094   -0.350004
     23          6           0       -3.948124   -2.264837   -0.853710
     24          1           0       -4.741361   -1.646029   -1.281526
     25          1           0       -3.497431   -2.893175   -1.622673
     26          1           0       -4.371508   -2.881302   -0.056446
     27          6           0        4.658030   -0.412584    0.465183
     28          1           0        4.441752   -0.468695    1.534919
     29          1           0        5.096607    0.562252    0.237804
     30          6           0        5.613950   -1.545423    0.047461
     31          1           0        6.535172   -1.450559    0.583419
     32          1           0        5.166276   -2.490922    0.272230
     33          1           0        5.804580   -1.481892   -1.003503
 ---------------------------------------------------------------------
 Rotational constants (GHZ):      0.9856217      0.2199713      0.1965052
 Leave Link  202 at Mon Mar 20 17:38:54 2017, MaxMem=   402653184 cpu:         0.0
 (Enter /n/sw/g09_D.01/g09/l301.exe)
 Standard basis: CC-pVDZ (5D, 7F)
 Ernie: Thresh=  0.10000D-02 Tol=  0.10000D-05 Strict=F.
 Ernie:  32 primitive shells out of 437 were deleted.
 There are   325 symmetry adapted cartesian basis functions of A   symmetry.
 There are   309 symmetry adapted basis functions of A   symmetry.
   309 basis functions,   647 primitive gaussians,   325 cartesian basis functions
    61 alpha electrons       61 beta electrons
       nuclear repulsion energy      1112.2099210338 Hartrees.
 IExCor=  402 DFT=T Ex+Corr=B3LYP ExCW=0 ScaHFX=  0.200000
 ScaDFX=  0.800000  0.720000  1.000000  0.810000 ScalE2=  1.000000  1.000000
 IRadAn=      0 IRanWt=     -1 IRanGd=            0 ICorTp=0 IEmpDi=141
 NAtoms=   33 NActive=   33 NUniq=   33 SFac= 1.00D+00 NAtFMM=   60 NAOKFM=F Big=F
 Integral buffers will be    131072 words long.
 Raffenetti 2 integral format.
 Two-electron integral symmetry is turned on.
 R6Disp:  Grimme-D3(BJ) Dispersion energy=       -0.0593618319 Hartrees.
 Nuclear repulsion after empirical dispersion term =     1112.1505592019 Hartrees.
 Force inversion solution in PCM.
 ------------------------------------------------------------------------------
 Polarizable Continuum Model (PCM)
 =================================
 Model                : PCM (using non-symmetric T matrix).
 Atomic radii         : UFF (Universal Force Field).
 Polarization charges : Total charges.
 Charge compensation  : None.
 Solution method      : Matrix inversion.
 Cavity type          : Scaled VdW (van der Waals Surface) (Alpha=1.100).
 Cavity algorithm     : GePol (No added spheres)
                        Default sphere list used, NSphG=   33.
                        Lebedev-Laikov grids with approx.  5.0 points / Ang**2.
                        Smoothing algorithm: Karplus/York (Gamma=1.0000).
                        Polarization charges: spherical gaussians, with
                                              point-specific exponents (IZeta= 3).
                        Self-potential: point-specific (ISelfS= 7).
                        Self-field    : sphere-specific E.n sum rule (ISelfD= 2).
 1st derivatives      : Analytical E(r).r(x)/FMM algorithm (CHGder, D1EAlg=3).
                        Cavity 1st derivative terms included.
 2nd derivatives      : Analytical E(r).r(xy)/FMM algorithm (CHGder, D2EAlg=3).
                        Cavity 2nd derivative terms included.
 Solvent              : 1,4-Dioxane, Eps=   2.209900 Eps(inf)=   2.023222
 ------------------------------------------------------------------------------
 GePol: Number of generator spheres                  =      33
 GePol: Total number of spheres                      =      33
 GePol: Number of exposed spheres                    =      33 (100.00%)
 GePol: Number of points                             =    2439
 GePol: Average weight of points                     =       0.13
 GePol: Minimum weight of points                     =   0.16D-10
 GePol: Maximum weight of points                     =    0.20577
 GePol: Number of points with low weight             =     143
 GePol: Fraction of low-weight points (<1% of avg)   =       5.86%
 GePol: Cavity surface area                          =    320.905 Ang**2
 GePol: Cavity volume                                =    335.756 Ang**3
 Leave Link  301 at Mon Mar 20 17:38:54 2017, MaxMem=   402653184 cpu:         0.8
 (Enter /n/sw/g09_D.01/g09/l302.exe)
 NPDir=0 NMtPBC=     1 NCelOv=     1 NCel=       1 NClECP=     1 NCelD=      1
         NCelK=      1 NCelE2=     1 NClLst=     1 CellRange=     0.0.
 One-electron integrals computed using PRISM.
 NBasis=   309 RedAO= T EigKep=  1.15D-03  NBF=   309
 NBsUse=   309 1.00D-06 EigRej= -1.00D+00 NBFU=   309
 Precomputing XC quadrature grid using
 IXCGrd= 4 IRadAn=           0 IRanWt=          -1 IRanGd=           0 AccXCQ= 0.00D+00.
 Generated NRdTot=       0 NPtTot=           0 NUsed=           0 NTot=          32
 NSgBfM=   323   323   323   323   323 MxSgAt=    33 MxSgA2=    33.
 Leave Link  302 at Mon Mar 20 17:38:55 2017, MaxMem=   402653184 cpu:         7.5
 (Enter /n/sw/g09_D.01/g09/l303.exe)
 DipDrv:  MaxL=1.
 Leave Link  303 at Mon Mar 20 17:38:55 2017, MaxMem=   402653184 cpu:         1.0
 (Enter /n/sw/g09_D.01/g09/l401.exe)
 ExpMin= 1.22D-01 ExpMax= 1.17D+04 ExpMxC= 4.01D+02 IAcc=1 IRadAn=         1 AccDes= 0.00D+00
 Harris functional with IExCor=  402 and IRadAn=       1 diagonalized for initial guess.
 HarFok:  IExCor=  402 AccDes= 0.00D+00 IRadAn=         1 IDoV= 1 UseB2=F ITyADJ=14
 ICtDFT=  3500011 ScaDFX=  1.000000  1.000000  1.000000  1.000000
 FoFCou: FMM=F IPFlag=           0 FMFlag=      100000 FMFlg1=           0
         NFxFlg=           0 DoJE=T BraDBF=F KetDBF=T FulRan=T
         wScrn=  0.000000 ICntrl=     500 IOpCl=  0 I1Cent=   200000004 NGrid=           0
         NMat0=    1 NMatS0=      1 NMatT0=    0 NMatD0=    1 NMtDS0=    0 NMtDT0=    0
 Petite list used in FoFCou.
 Harris En= -785.125979907646    
 JPrj=0 DoOrth=F DoCkMO=F.
 Leave Link  401 at Mon Mar 20 17:38:57 2017, MaxMem=   402653184 cpu:        13.2
 (Enter /n/sw/g09_D.01/g09/l502.exe)
 Closed shell SCF:
 Using DIIS extrapolation, IDIIS=  1040.
 Integral symmetry usage will be decided dynamically.
 IVT=      340497 IEndB=      340497 NGot=   402653184 MDV=   402435278
 LenX=   402435278 LenY=   402329212
 Requested convergence on RMS density matrix=1.00D-08 within 128 cycles.
 Requested convergence on MAX density matrix=1.00D-06.
 Requested convergence on             energy=1.00D-06.
 No special actions if energy rises.
 Fock matrices will be formed incrementally for  20 cycles.

 Cycle   1  Pass 1  IDiag  1:
 FoFJK:  IHMeth= 1 ICntrl=       0 DoSepK=F KAlg= 0 I1Cent=   0 FoldK=F
 IRaf= 800000000 NMat=   1 IRICut=       1 DoRegI=T DoRafI=F ISym2E= 0.
 FoFCou: FMM=F IPFlag=           0 FMFlag=      100000 FMFlg1=           0
         NFxFlg=           0 DoJE=F BraDBF=F KetDBF=F FulRan=T
         wScrn=  0.000000 ICntrl=       0 IOpCl=  0 I1Cent=           0 NGrid=           0
         NMat0=    1 NMatS0=      1 NMatT0=    0 NMatD0=    1 NMtDS0=    0 NMtDT0=    0
 Symmetry not used in FoFCou.
 Inv3:  Mode=1 IEnd=    17846163.
 Iteration    1 A*A^-1 deviation from unit magnitude is 7.55D-15 for   2151.
 Iteration    1 A*A^-1 deviation from orthogonality  is 6.11D-15 for   1876    660.
 Iteration    1 A^-1*A deviation from unit magnitude is 7.55D-15 for    776.
 Iteration    1 A^-1*A deviation from orthogonality  is 9.24D-15 for   1804   1794.
 E= -784.655691737111    
 DIIS: error= 2.71D-02 at cycle   1 NSaved=   1.
 NSaved= 1 IEnMin= 1 EnMin= -784.655691737111     IErMin= 1 ErrMin= 2.71D-02
 ErrMax= 2.71D-02  0.00D+00 EMaxC= 1.00D-01 BMatC= 4.63D-01 BMatP= 4.63D-01
 IDIUse=3 WtCom= 7.29D-01 WtEn= 2.71D-01
 Coeff-Com:  0.100D+01
 Coeff-En:   0.100D+01
 Coeff:      0.100D+01
 Gap=     0.197 Goal=   None    Shift=    0.000
 GapD=    0.197 DampG=1.000 DampE=0.500 DampFc=0.5000 IDamp=-1.
 Damping current iteration by 5.00D-01
 RMSDP=4.49D-03 MaxDP=1.78D-01              OVMax= 2.42D-01

 Cycle   2  Pass 1  IDiag  1:
 RMSU=  2.22D-03    CP:  9.83D-01
 E= -784.793267937749     Delta-E=       -0.137576200638 Rises=F Damp=T
 DIIS: error= 1.25D-02 at cycle   2 NSaved=   2.
 NSaved= 2 IEnMin= 2 EnMin= -784.793267937749     IErMin= 2 ErrMin= 1.25D-02
 ErrMax= 1.25D-02  0.00D+00 EMaxC= 1.00D-01 BMatC= 6.21D-02 BMatP= 4.63D-01
 IDIUse=3 WtCom= 8.75D-01 WtEn= 1.25D-01
 Coeff-Com:  0.204D+00 0.796D+00
 Coeff-En:   0.305D+00 0.695D+00
 Coeff:      0.217D+00 0.783D+00
 Gap=     0.234 Goal=   None    Shift=    0.000
 RMSDP=1.29D-03 MaxDP=4.79D-02 DE=-1.38D-01 OVMax= 1.74D-01

 Cycle   3  Pass 1  IDiag  1:
 RMSU=  1.22D-03    CP:  9.77D-01  8.16D-01
 E= -785.044162286185     Delta-E=       -0.250894348436 Rises=F Damp=F
 DIIS: error= 1.35D-02 at cycle   3 NSaved=   3.
 NSaved= 3 IEnMin= 3 EnMin= -785.044162286185     IErMin= 2 ErrMin= 1.25D-02
 ErrMax= 1.35D-02  0.00D+00 EMaxC= 1.00D-01 BMatC= 5.77D-02 BMatP= 6.21D-02
 IDIUse=3 WtCom= 8.65D-01 WtEn= 1.35D-01
 Coeff-Com:  0.730D-01 0.487D+00 0.440D+00
 Coeff-En:   0.000D+00 0.000D+00 0.100D+01
 Coeff:      0.631D-01 0.421D+00 0.516D+00
 Gap=     0.179 Goal=   None    Shift=    0.000
 RMSDP=8.71D-04 MaxDP=3.85D-02 DE=-2.51D-01 OVMax= 7.39D-02

 Cycle   4  Pass 1  IDiag  1:
 RMSU=  5.50D-04    CP:  9.79D-01  8.77D-01  4.57D-01
 E= -785.085158570112     Delta-E=       -0.040996283927 Rises=F Damp=F
 DIIS: error= 6.24D-03 at cycle   4 NSaved=   4.
 NSaved= 4 IEnMin= 4 EnMin= -785.085158570112     IErMin= 4 ErrMin= 6.24D-03
 ErrMax= 6.24D-03  0.00D+00 EMaxC= 1.00D-01 BMatC= 1.09D-02 BMatP= 5.77D-02
 IDIUse=3 WtCom= 9.38D-01 WtEn= 6.24D-02
 Coeff-Com:  0.179D-01 0.109D+00 0.313D+00 0.559D+00
 Coeff-En:   0.000D+00 0.000D+00 0.179D+00 0.821D+00
 Coeff:      0.168D-01 0.103D+00 0.305D+00 0.576D+00
 Gap=     0.176 Goal=   None    Shift=    0.000
 RMSDP=3.01D-04 MaxDP=1.25D-02 DE=-4.10D-02 OVMax= 2.39D-02

 Cycle   5  Pass 1  IDiag  1:
 RMSU=  1.26D-04    CP:  9.79D-01  8.43D-01  6.02D-01  6.46D-01
 E= -785.093625407627     Delta-E=       -0.008466837515 Rises=F Damp=F
 DIIS: error= 1.25D-03 at cycle   5 NSaved=   5.
 NSaved= 5 IEnMin= 5 EnMin= -785.093625407627     IErMin= 5 ErrMin= 1.25D-03
 ErrMax= 1.25D-03  0.00D+00 EMaxC= 1.00D-01 BMatC= 5.57D-04 BMatP= 1.09D-02
 IDIUse=3 WtCom= 9.88D-01 WtEn= 1.25D-02
 Coeff-Com:  0.320D-02 0.152D-01 0.122D+00 0.316D+00 0.543D+00
 Coeff-En:   0.000D+00 0.000D+00 0.000D+00 0.000D+00 0.100D+01
 Coeff:      0.316D-02 0.150D-01 0.121D+00 0.312D+00 0.549D+00
 Gap=     0.176 Goal=   None    Shift=    0.000
 RMSDP=7.15D-05 MaxDP=3.42D-03 DE=-8.47D-03 OVMax= 6.78D-03

 Cycle   6  Pass 1  IDiag  1:
 RMSU=  3.66D-05    CP:  9.79D-01  8.50D-01  5.94D-01  6.85D-01  5.69D-01
 E= -785.094059093254     Delta-E=       -0.000433685627 Rises=F Damp=F
 DIIS: error= 4.18D-04 at cycle   6 NSaved=   6.
 NSaved= 6 IEnMin= 6 EnMin= -785.094059093254     IErMin= 6 ErrMin= 4.18D-04
 ErrMax= 4.18D-04  0.00D+00 EMaxC= 1.00D-01 BMatC= 5.45D-05 BMatP= 5.57D-04
 IDIUse=3 WtCom= 9.96D-01 WtEn= 4.18D-03
 Coeff-Com:  0.285D-03-0.112D-02 0.410D-01 0.125D+00 0.314D+00 0.520D+00
 Coeff-En:   0.000D+00 0.000D+00 0.000D+00 0.000D+00 0.730D-02 0.993D+00
 Coeff:      0.284D-03-0.112D-02 0.408D-01 0.125D+00 0.313D+00 0.522D+00
 Gap=     0.176 Goal=   None    Shift=    0.000
 RMSDP=2.24D-05 MaxDP=1.01D-03 DE=-4.34D-04 OVMax= 1.96D-03

 Cycle   7  Pass 1  IDiag  1:
 RMSU=  1.45D-05    CP:  9.79D-01  8.50D-01  5.96D-01  6.89D-01  6.15D-01
                    CP:  5.72D-01
 E= -785.094098221309     Delta-E=       -0.000039128055 Rises=F Damp=F
 DIIS: error= 1.49D-04 at cycle   7 NSaved=   7.
 NSaved= 7 IEnMin= 7 EnMin= -785.094098221309     IErMin= 7 ErrMin= 1.49D-04
 ErrMax= 1.49D-04  0.00D+00 EMaxC= 1.00D-01 BMatC= 6.18D-06 BMatP= 5.45D-05
 IDIUse=3 WtCom= 9.99D-01 WtEn= 1.49D-03
 Coeff-Com: -0.956D-04-0.211D-02 0.126D-01 0.428D-01 0.136D+00 0.316D+00
 Coeff-Com:  0.494D+00
 Coeff-En:   0.000D+00 0.000D+00 0.000D+00 0.000D+00 0.000D+00 0.391D-01
 Coeff-En:   0.961D+00
 Coeff:     -0.954D-04-0.210D-02 0.126D-01 0.428D-01 0.136D+00 0.316D+00
 Coeff:      0.495D+00
 Gap=     0.176 Goal=   None    Shift=    0.000
 RMSDP=7.29D-06 MaxDP=3.49D-04 DE=-3.91D-05 OVMax= 6.27D-04

 Cycle   8  Pass 1  IDiag  1:
 RMSU=  4.39D-06    CP:  9.79D-01  8.50D-01  5.97D-01  6.90D-01  6.17D-01
                    CP:  6.24D-01  6.30D-01
 E= -785.094102776655     Delta-E=       -0.000004555346 Rises=F Damp=F
 DIIS: error= 3.96D-05 at cycle   8 NSaved=   8.
 NSaved= 8 IEnMin= 8 EnMin= -785.094102776655     IErMin= 8 ErrMin= 3.96D-05
 ErrMax= 3.96D-05  0.00D+00 EMaxC= 1.00D-01 BMatC= 5.94D-07 BMatP= 6.18D-06
 IDIUse=1 WtCom= 1.00D+00 WtEn= 0.00D+00
 Coeff-Com: -0.467D-04-0.124D-02 0.365D-02 0.134D-01 0.532D-01 0.142D+00
 Coeff-Com:  0.295D+00 0.494D+00
 Coeff:     -0.467D-04-0.124D-02 0.365D-02 0.134D-01 0.532D-01 0.142D+00
 Coeff:      0.295D+00 0.494D+00
 Gap=     0.176 Goal=   None    Shift=    0.000
 RMSDP=2.33D-06 MaxDP=1.30D-04 DE=-4.56D-06 OVMax= 1.53D-04

 Cycle   9  Pass 1  IDiag  1:
 RMSU=  1.48D-06    CP:  9.79D-01  8.50D-01  5.97D-01  6.89D-01  6.21D-01
                    CP:  6.30D-01  6.53D-01  6.28D-01
 E= -785.094103218821     Delta-E=       -0.000000442165 Rises=F Damp=F
 DIIS: error= 9.52D-06 at cycle   9 NSaved=   9.
 NSaved= 9 IEnMin= 9 EnMin= -785.094103218821     IErMin= 9 ErrMin= 9.52D-06
 ErrMax= 9.52D-06  0.00D+00 EMaxC= 1.00D-01 BMatC= 4.48D-08 BMatP= 5.94D-07
 IDIUse=1 WtCom= 1.00D+00 WtEn= 0.00D+00
 Coeff-Com:  0.536D-05-0.300D-03 0.127D-03 0.458D-03 0.742D-02 0.242D-01
 Coeff-Com:  0.705D-01 0.247D+00 0.650D+00
 Coeff:      0.536D-05-0.300D-03 0.127D-03 0.458D-03 0.742D-02 0.242D-01
 Coeff:      0.705D-01 0.247D+00 0.650D+00
 Gap=     0.176 Goal=   None    Shift=    0.000
 RMSDP=6.63D-07 MaxDP=2.56D-05 DE=-4.42D-07 OVMax= 6.01D-05

 Cycle  10  Pass 1  IDiag  1:
 RMSU=  4.03D-07    CP:  9.79D-01  8.50D-01  5.97D-01  6.89D-01  6.22D-01
                    CP:  6.30D-01  6.63D-01  6.92D-01  7.37D-01
 E= -785.094103255954     Delta-E=       -0.000000037134 Rises=F Damp=F
 DIIS: error= 1.67D-06 at cycle  10 NSaved=  10.
 NSaved=10 IEnMin=10 EnMin= -785.094103255954     IErMin=10 ErrMin= 1.67D-06
 ErrMax= 1.67D-06  0.00D+00 EMaxC= 1.00D-01 BMatC= 2.65D-09 BMatP= 4.48D-08
 IDIUse=1 WtCom= 1.00D+00 WtEn= 0.00D+00
 Coeff-Com:  0.563D-05-0.642D-04-0.169D-03-0.642D-03 0.634D-04 0.197D-02
 Coeff-Com:  0.116D-01 0.757D-01 0.291D+00 0.621D+00
 Coeff:      0.563D-05-0.642D-04-0.169D-03-0.642D-03 0.634D-04 0.197D-02
 Coeff:      0.116D-01 0.757D-01 0.291D+00 0.621D+00
 Gap=     0.176 Goal=   None    Shift=    0.000
 RMSDP=2.04D-07 MaxDP=1.04D-05 DE=-3.71D-08 OVMax= 2.40D-05

 Cycle  11  Pass 1  IDiag  1:
 RMSU=  1.56D-07    CP:  9.79D-01  8.50D-01  5.97D-01  6.89D-01  6.22D-01
                    CP:  6.30D-01  6.65D-01  7.02D-01  7.92D-01  7.77D-01
 E= -785.094103258030     Delta-E=       -0.000000002076 Rises=F Damp=F
 DIIS: error= 8.98D-07 at cycle  11 NSaved=  11.
 NSaved=11 IEnMin=11 EnMin= -785.094103258030     IErMin=11 ErrMin= 8.98D-07
 ErrMax= 8.98D-07  0.00D+00 EMaxC= 1.00D-01 BMatC= 5.72D-10 BMatP= 2.65D-09
 IDIUse=1 WtCom= 1.00D+00 WtEn= 0.00D+00
 Coeff-Com:  0.291D-05 0.501D-06-0.113D-03-0.430D-03-0.866D-03-0.179D-02
 Coeff-Com: -0.210D-02 0.128D-01 0.898D-01 0.359D+00 0.543D+00
 Coeff:      0.291D-05 0.501D-06-0.113D-03-0.430D-03-0.866D-03-0.179D-02
 Coeff:     -0.210D-02 0.128D-01 0.898D-01 0.359D+00 0.543D+00
 Gap=     0.176 Goal=   None    Shift=    0.000
 RMSDP=9.86D-08 MaxDP=5.87D-06 DE=-2.08D-09 OVMax= 1.31D-05

 Cycle  12  Pass 1  IDiag  1:
 RMSU=  5.45D-08    CP:  9.79D-01  8.50D-01  5.97D-01  6.89D-01  6.22D-01
                    CP:  6.30D-01  6.65D-01  7.04D-01  7.99D-01  8.44D-01
                    CP:  5.18D-01
 E= -785.094103258602     Delta-E=       -0.000000000572 Rises=F Damp=F
 DIIS: error= 3.23D-07 at cycle  12 NSaved=  12.
 NSaved=12 IEnMin=12 EnMin= -785.094103258602     IErMin=12 ErrMin= 3.23D-07
 ErrMax= 3.23D-07  0.00D+00 EMaxC= 1.00D-01 BMatC= 6.81D-11 BMatP= 5.72D-10
 IDIUse=1 WtCom= 1.00D+00 WtEn= 0.00D+00
 Coeff-Com:  0.106D-05 0.750D-05-0.419D-04-0.164D-03-0.482D-03-0.118D-02
 Coeff-Com: -0.231D-02-0.108D-02 0.195D-01 0.131D+00 0.310D+00 0.545D+00
 Coeff:      0.106D-05 0.750D-05-0.419D-04-0.164D-03-0.482D-03-0.118D-02
 Coeff:     -0.231D-02-0.108D-02 0.195D-01 0.131D+00 0.310D+00 0.545D+00
 Gap=     0.176 Goal=   None    Shift=    0.000
 RMSDP=3.41D-08 MaxDP=1.28D-06 DE=-5.72D-10 OVMax= 4.73D-06

 Cycle  13  Pass 1  IDiag  1:
 RMSU=  1.80D-08    CP:  9.79D-01  8.50D-01  5.97D-01  6.89D-01  6.22D-01
                    CP:  6.31D-01  6.65D-01  7.04D-01  8.04D-01  8.48D-01
                    CP:  6.49D-01  6.54D-01
 E= -785.094103258661     Delta-E=       -0.000000000059 Rises=F Damp=F
 DIIS: error= 1.32D-07 at cycle  13 NSaved=  13.
 NSaved=13 IEnMin=13 EnMin= -785.094103258661     IErMin=13 ErrMin= 1.32D-07
 ErrMax= 1.32D-07  0.00D+00 EMaxC= 1.00D-01 BMatC= 8.52D-12 BMatP= 6.81D-11
 IDIUse=1 WtCom= 1.00D+00 WtEn= 0.00D+00
 Coeff-Com:  0.517D-07 0.406D-05-0.992D-05-0.376D-04-0.177D-03-0.468D-03
 Coeff-Com: -0.113D-02-0.294D-02-0.223D-02 0.243D-01 0.106D+00 0.314D+00
 Coeff-Com:  0.562D+00
 Coeff:      0.517D-07 0.406D-05-0.992D-05-0.376D-04-0.177D-03-0.468D-03
 Coeff:     -0.113D-02-0.294D-02-0.223D-02 0.243D-01 0.106D+00 0.314D+00
 Coeff:      0.562D+00
 Gap=     0.176 Goal=   None    Shift=    0.000
 RMSDP=9.96D-09 MaxDP=4.75D-07 DE=-5.89D-11 OVMax= 1.15D-06

 Error on total polarization charges =  0.00643
 SCF Done:  E(RB3LYP) =  -785.094103259     A.U. after   13 cycles
            NFock= 13  Conv=0.10D-07     -V/T= 2.0065
 KE= 7.800084845097D+02 PE=-4.057226521592D+03 EE= 1.379973374621D+03
 Leave Link  502 at Mon Mar 20 17:42:58 2017, MaxMem=   402653184 cpu:      1918.5
 (Enter /n/sw/g09_D.01/g09/l801.exe)
 DoSCS=F DFT=T ScalE2(SS,OS)=  1.000000  1.000000
 Range of M.O.s used for correlation:     1   309
 NBasis=   309 NAE=    61 NBE=    61 NFC=     0 NFV=     0
 NROrb=    309 NOA=    61 NOB=    61 NVA=   248 NVB=   248
 Leave Link  801 at Mon Mar 20 17:42:58 2017, MaxMem=   402653184 cpu:         0.3
 (Enter /n/sw/g09_D.01/g09/l1101.exe)
 Using compressed storage, NAtomX=    33.
 Will process     34 centers per pass.
 R6Disp: Adding Grimme-D3(BJ) dispersion energy 1st derivatives to the gradient.
 Leave Link 1101 at Mon Mar 20 17:42:59 2017, MaxMem=   402653184 cpu:         9.0
 (Enter /n/sw/g09_D.01/g09/l1102.exe)
 Symmetrizing basis deriv contribution to polar:
 IMax=3 JMax=2 DiffMx= 0.00D+00
 Leave Link 1102 at Mon Mar 20 17:42:59 2017, MaxMem=   402653184 cpu:         1.0
 (Enter /n/sw/g09_D.01/g09/l1110.exe)
 Forming Gx(P) for the SCF density, NAtomX=    33.
 Integral derivatives from FoFJK, PRISM(SPDF).
 Do as many integral derivatives as possible in FoFJK.
 G2DrvN: MDV=     402652816.
 G2DrvN: will do    34 centers at a time, making    1 passes.
 Calling FoFCou, ICntrl=  3107 FMM=F I1Cent=   0 AccDes= 0.00D+00.
 FoFJK:  IHMeth= 1 ICntrl=    3107 DoSepK=F KAlg= 0 I1Cent=   0 FoldK=F
 IRaf=         0 NMat=   1 IRICut=       1 DoRegI=T DoRafI=F ISym2E= 0.
 FoFCou: FMM=F IPFlag=           0 FMFlag=      100000 FMFlg1=           0
         NFxFlg=           0 DoJE=F BraDBF=F KetDBF=F FulRan=T
         wScrn=  0.000000 ICntrl=    3107 IOpCl=  0 I1Cent=           0 NGrid=           0
         NMat0=    1 NMatS0=      1 NMatT0=    0 NMatD0=    1 NMtDS0=    0 NMtDT0=    0
 Symmetry not used in FoFCou.
 NEqPCM:  Using equilibrium solvation (IEInf=0, Eps=   2.2099, EpsInf=   2.0232)
 G2PCM: DoFxE=T DoFxN=T DoGrad=T DoDP/DQ/DG/TGxP=FFFF NFrqRd=   0 IEInf=0 SqF1=F DoCFld=F IF1Alg=4.
 GePol: Maximum number of non-zero 1st derivatives   =     228
 End of G2Drv F.D. properties file   721 does not exist.
 End of G2Drv F.D. properties file   722 does not exist.
 End of G2Drv F.D. properties file   788 does not exist.
 Leave Link 1110 at Mon Mar 20 17:48:12 2017, MaxMem=   402653184 cpu:      2500.3
 (Enter /n/sw/g09_D.01/g09/l1002.exe)
 Minotr:  Closed shell wavefunction.
          IDoAtm=111111111111111111111111111111111
 NEqPCM:  Using equilibrium solvation (IEInf=0, Eps=   2.2099, EpsInf=   2.0232)
          Direct CPHF calculation.
          Differentiating once with respect to nuclear coordinates.
          Requested convergence is 1.0D-08 RMS, and 1.0D-07 maximum.
          Secondary convergence is 1.0D-12 RMS, and 1.0D-12 maximum.
          NewPWx=T KeepS1=F KeepF1=F KeepIn=T MapXYZ=F SortEE=F KeepMc=T.
          MDV=     402652541 using IRadAn=       2.
 Generate precomputed XC quadrature information.
          Solving linear equations simultaneously, MaxMat=       0.
 FoFJK:  IHMeth= 1 ICntrl=       0 DoSepK=F KAlg= 0 I1Cent=   0 FoldK=F
 IRaf= 800000000 NMat= 102 IRICut=     255 DoRegI=T DoRafI=T ISym2E= 2.
 FoFCou: FMM=F IPFlag=           0 FMFlag=      100000 FMFlg1=           0
         NFxFlg=           0 DoJE=F BraDBF=F KetDBF=F FulRan=T
         wScrn=  0.000000 ICntrl=       0 IOpCl=  0 I1Cent=           0 NGrid=           0
         NMat0=  102 NMatS0=    102 NMatT0=    0 NMatD0=  102 NMtDS0=    0 NMtDT0=    0
 Integrals replicated using symmetry in FoFCou.
          There are   102 degrees of freedom in the 1st order CPHF.  IDoFFX=6 NUNeed=     0.
     96 vectors produced by pass  0 Test12= 1.51D-14 1.00D-09 XBig12= 1.71D-01 2.14D-01.
 AX will form    96 AO Fock derivatives at one time.
     96 vectors produced by pass  1 Test12= 1.51D-14 1.00D-09 XBig12= 5.37D-02 7.04D-02.
     96 vectors produced by pass  2 Test12= 1.51D-14 1.00D-09 XBig12= 3.90D-04 3.42D-03.
     96 vectors produced by pass  3 Test12= 1.51D-14 1.00D-09 XBig12= 1.19D-06 1.11D-04.
     96 vectors produced by pass  4 Test12= 1.51D-14 1.00D-09 XBig12= 1.51D-09 3.64D-06.
     76 vectors produced by pass  5 Test12= 1.51D-14 1.00D-09 XBig12= 1.32D-12 1.54D-07.
      5 vectors produced by pass  6 Test12= 1.51D-14 1.00D-09 XBig12= 1.13D-15 3.33D-09.
 InvSVY:  IOpt=1 It=  1 EMax= 9.99D-16
 Solved reduced A of dimension   561 with   102 vectors.
 End of Minotr F.D. properties file   721 does not exist.
 End of Minotr F.D. properties file   722 does not exist.
 End of Minotr F.D. properties file   788 does not exist.
 Leave Link 1002 at Mon Mar 20 18:02:21 2017, MaxMem=   402653184 cpu:      6793.0
 (Enter /n/sw/g09_D.01/g09/l601.exe)
 Copying SCF densities to generalized density rwf, IOpCl= 0 IROHF=0.

 **********************************************************************

            Population analysis using the SCF density.

 **********************************************************************

 Orbital symmetries:
       Occupied  (A) (A) (A) (A) (A) (A) (A) (A) (A) (A) (A) (A)
                 (A) (A) (A) (A) (A) (A) (A) (A) (A) (A) (A) (A)
                 (A) (A) (A) (A) (A) (A) (A) (A) (A) (A) (A) (A)
                 (A) (A) (A) (A) (A) (A) (A) (A) (A) (A) (A) (A)
                 (A) (A) (A) (A) (A) (A) (A) (A) (A) (A) (A) (A)
                 (A)
       Virtual   (A) (A) (A) (A) (A) (A) (A) (A) (A) (A) (A) (A)
                 (A) (A) (A) (A) (A) (A) (A) (A) (A) (A) (A) (A)
                 (A) (A) (A) (A) (A) (A) (A) (A) (A) (A) (A) (A)
                 (A) (A) (A) (A) (A) (A) (A) (A) (A) (A) (A) (A)
                 (A) (A) (A) (A) (A) (A) (A) (A) (A) (A) (A) (A)
                 (A) (A) (A) (A) (A) (A) (A) (A) (A) (A) (A) (A)
                 (A) (A) (A) (A) (A) (A) (A) (A) (A) (A) (A) (A)
                 (A) (A) (A) (A) (A) (A) (A) (A) (A) (A) (A) (A)
                 (A) (A) (A) (A) (A) (A) (A) (A) (A) (A) (A) (A)
                 (A) (A) (A) (A) (A) (A) (A) (A) (A) (A) (A) (A)
                 (A) (A) (A) (A) (A) (A) (A) (A) (A) (A) (A) (A)
                 (A) (A) (A) (A) (A) (A) (A) (A) (A) (A) (A) (A)
                 (A) (A) (A) (A) (A) (A) (A) (A) (A) (A) (A) (A)
                 (A) (A) (A) (A) (A) (A) (A) (A) (A) (A) (A) (A)
                 (A) (A) (A) (A) (A) (A) (A) (A) (A) (A) (A) (A)
                 (A) (A) (A) (A) (A) (A) (A) (A) (A) (A) (A) (A)
                 (A) (A) (A) (A) (A) (A) (A) (A) (A) (A) (A) (A)
                 (A) (A) (A) (A) (A) (A) (A) (A) (A) (A) (A) (A)
                 (A) (A) (A) (A) (A) (A) (A) (A) (A) (A) (A) (A)
                 (A) (A) (A) (A) (A) (A) (A) (A) (A) (A) (A) (A)
                 (A) (A) (A) (A) (A) (A) (A) (A)
 The electronic state is 1-A.
 Alpha  occ. eigenvalues --  -19.18660 -19.17856 -19.12446 -19.11743 -14.37572
 Alpha  occ. eigenvalues --  -10.34091 -10.30435 -10.24664 -10.24577 -10.23720
 Alpha  occ. eigenvalues --  -10.19708 -10.19649 -10.19506 -10.18784 -10.18732
 Alpha  occ. eigenvalues --  -10.18169  -1.11520  -1.09455  -1.02183  -1.00494
 Alpha  occ. eigenvalues --   -0.95078  -0.82093  -0.78293  -0.77636  -0.72857
 Alpha  occ. eigenvalues --   -0.71250  -0.67010  -0.62833  -0.62416  -0.59579
 Alpha  occ. eigenvalues --   -0.56782  -0.55578  -0.53542  -0.50912  -0.50071
 Alpha  occ. eigenvalues --   -0.49660  -0.47762  -0.46915  -0.46511  -0.44532
 Alpha  occ. eigenvalues --   -0.44415  -0.44079  -0.42666  -0.41554  -0.41163
 Alpha  occ. eigenvalues --   -0.39901  -0.39465  -0.38201  -0.37909  -0.37447
 Alpha  occ. eigenvalues --   -0.36079  -0.35622  -0.35493  -0.35421  -0.30655
 Alpha  occ. eigenvalues --   -0.30446  -0.29731  -0.28398  -0.26763  -0.23809
 Alpha  occ. eigenvalues --   -0.21811
 Alpha virt. eigenvalues --   -0.04193  -0.01524   0.04121   0.04486   0.06488
 Alpha virt. eigenvalues --    0.06600   0.07033   0.08009   0.09352   0.10490
 Alpha virt. eigenvalues --    0.11277   0.11559   0.12029   0.12217   0.12905
 Alpha virt. eigenvalues --    0.13268   0.14051   0.14166   0.14652   0.15289
 Alpha virt. eigenvalues --    0.16048   0.16180   0.17912   0.20635   0.21160
 Alpha virt. eigenvalues --    0.23107   0.25047   0.25459   0.27528   0.29252
 Alpha virt. eigenvalues --    0.29854   0.31849   0.33151   0.33717   0.37548
 Alpha virt. eigenvalues --    0.40413   0.41103   0.41883   0.42976   0.43356
 Alpha virt. eigenvalues --    0.44229   0.44664   0.44817   0.45899   0.46753
 Alpha virt. eigenvalues --    0.47507   0.48185   0.49282   0.50001   0.51470
 Alpha virt. eigenvalues --    0.51922   0.52833   0.53444   0.54322   0.57126
 Alpha virt. eigenvalues --    0.57343   0.58566   0.59831   0.60865   0.61280
 Alpha virt. eigenvalues --    0.61913   0.62163   0.62741   0.62997   0.63770
 Alpha virt. eigenvalues --    0.64132   0.65327   0.65519   0.65957   0.66168
 Alpha virt. eigenvalues --    0.66477   0.67118   0.67511   0.68716   0.69631
 Alpha virt. eigenvalues --    0.70477   0.71091   0.71465   0.72016   0.72526
 Alpha virt. eigenvalues --    0.74759   0.75358   0.76253   0.78524   0.79736
 Alpha virt. eigenvalues --    0.82043   0.86234   0.86712   0.89231   0.90037
 Alpha virt. eigenvalues --    0.91081   0.91329   0.91767   0.94388   0.95741
 Alpha virt. eigenvalues --    0.96908   0.98341   1.00156   1.01188   1.02791
 Alpha virt. eigenvalues --    1.03414   1.04800   1.05204   1.05906   1.07131
 Alpha virt. eigenvalues --    1.09155   1.09432   1.10642   1.12813   1.14230
 Alpha virt. eigenvalues --    1.14874   1.15350   1.17199   1.18495   1.19714
 Alpha virt. eigenvalues --    1.20894   1.21689   1.23232   1.25594   1.27026
 Alpha virt. eigenvalues --    1.27629   1.29910   1.31625   1.34318   1.34561
 Alpha virt. eigenvalues --    1.36517   1.37245   1.40129   1.42230   1.42708
 Alpha virt. eigenvalues --    1.44383   1.45302   1.48075   1.49315   1.50622
 Alpha virt. eigenvalues --    1.51833   1.53163   1.53815   1.56272   1.58146
 Alpha virt. eigenvalues --    1.58358   1.59171   1.59801   1.60971   1.61373
 Alpha virt. eigenvalues --    1.61922   1.62596   1.62712   1.65214   1.65362
 Alpha virt. eigenvalues --    1.65669   1.66106   1.66664   1.67080   1.68465
 Alpha virt. eigenvalues --    1.69307   1.69527   1.70294   1.70835   1.71986
 Alpha virt. eigenvalues --    1.72092   1.73449   1.75620   1.76141   1.77566
 Alpha virt. eigenvalues --    1.77901   1.78477   1.80521   1.82212   1.84002
 Alpha virt. eigenvalues --    1.84507   1.85811   1.87161   1.89260   1.91547
 Alpha virt. eigenvalues --    1.91942   1.93279   1.93920   1.95542   1.96796
 Alpha virt. eigenvalues --    1.97859   1.99256   2.00435   2.01564   2.02118
 Alpha virt. eigenvalues --    2.06335   2.07463   2.08169   2.09020   2.09730
 Alpha virt. eigenvalues --    2.11160   2.13051   2.14303   2.16911   2.18676
 Alpha virt. eigenvalues --    2.21003   2.21968   2.22495   2.23826   2.24284
 Alpha virt. eigenvalues --    2.26457   2.27954   2.30700   2.31892   2.35359
 Alpha virt. eigenvalues --    2.35696   2.39277   2.40547   2.41615   2.44718
 Alpha virt. eigenvalues --    2.44961   2.45911   2.47334   2.47755   2.48864
 Alpha virt. eigenvalues --    2.50670   2.54693   2.56183   2.57832   2.62055
 Alpha virt. eigenvalues --    2.62454   2.63618   2.65219   2.66299   2.66522
 Alpha virt. eigenvalues --    2.71879   2.73532   2.76599   2.79926   2.83595
 Alpha virt. eigenvalues --    2.89345   2.90667   2.91658   2.92079   2.96908
 Alpha virt. eigenvalues --    3.02328   3.03443   3.16267   3.17108   3.17690
 Alpha virt. eigenvalues --    3.18537   3.27611   3.38604   3.39924   3.48294
 Alpha virt. eigenvalues --    3.52362   3.53835   3.57978
          Condensed to atoms (all electrons):
               1          2          3          4          5          6
     1  C    4.676370   0.389568   0.588496  -0.002719   0.007405   0.506464
     2  H    0.389568   0.740145  -0.056291  -0.016277   0.009429  -0.042661
     3  C    0.588496  -0.056291   4.701740   0.362100   0.360496  -0.040534
     4  H   -0.002719  -0.016277   0.362100   0.672690  -0.052066   0.011838
     5  H    0.007405   0.009429   0.360496  -0.052066   0.676333  -0.032500
     6  C    0.506464  -0.042661  -0.040534   0.011838  -0.032500   4.776441
     7  H   -0.033121  -0.018189   0.010962  -0.000123  -0.000439   0.387944
     8  C   -0.025695   0.010952  -0.032323  -0.000648   0.011994   0.487702
     9  H   -0.023916  -0.000425   0.009775   0.000064   0.002584  -0.016779
    10  N    0.004064  -0.000078   0.000469  -0.000017   0.000189  -0.038701
    11  H   -0.000027   0.000014  -0.000045  -0.000002   0.000084   0.006746
    12  C    0.000116  -0.000013   0.000059   0.000000  -0.000026  -0.009045
    13  O    0.000213  -0.000011  -0.000008   0.000000  -0.000001  -0.000160
    14  O   -0.000001   0.000000   0.000000   0.000000   0.000000   0.000109
    15  C   -0.028356   0.000716   0.125932  -0.004798  -0.014149  -0.026050
    16  H   -0.002447   0.001158  -0.003596  -0.003366   0.004197  -0.001022
    17  C   -0.032419  -0.000641  -0.027558   0.003553  -0.013107  -0.016431
    18  H   -0.002988  -0.000225   0.001178   0.000014  -0.000296  -0.003322
    19  H    0.002302   0.000076   0.001729  -0.000110   0.000851  -0.000516
    20  C   -0.000887  -0.000097  -0.008417   0.000535  -0.008667   0.000657
    21  O    0.000223   0.000002  -0.001790   0.002640  -0.001755  -0.000013
    22  O   -0.000209  -0.000008  -0.007925  -0.000157   0.015163   0.000071
    23  C   -0.000006   0.000000  -0.000019  -0.000071  -0.000409   0.000005
    24  H    0.000021   0.000000   0.000471   0.000111  -0.001234  -0.000004
    25  H   -0.000002   0.000000  -0.000014  -0.000003  -0.000046   0.000001
    26  H   -0.000002   0.000000  -0.000079  -0.000016   0.000299   0.000001
    27  C    0.000000   0.000000   0.000000   0.000000   0.000000  -0.000011
    28  H    0.000000   0.000000   0.000000   0.000000   0.000000  -0.000021
    29  H    0.000001   0.000000   0.000000   0.000000   0.000000   0.000014
    30  C    0.000000   0.000000   0.000000   0.000000   0.000000   0.000000
    31  H    0.000000   0.000000   0.000000   0.000000   0.000000   0.000000
    32  H    0.000000   0.000000   0.000000   0.000000   0.000000   0.000000
    33  H    0.000000   0.000000   0.000000   0.000000   0.000000   0.000000
               7          8          9         10         11         12
     1  C   -0.033121  -0.025695  -0.023916   0.004064  -0.000027   0.000116
     2  H   -0.018189   0.010952  -0.000425  -0.000078   0.000014  -0.000013
     3  C    0.010962  -0.032323   0.009775   0.000469  -0.000045   0.000059
     4  H   -0.000123  -0.000648   0.000064  -0.000017  -0.000002   0.000000
     5  H   -0.000439   0.011994   0.002584   0.000189   0.000084  -0.000026
     6  C    0.387944   0.487702  -0.016779  -0.038701   0.006746  -0.009045
     7  H    0.697775  -0.057306   0.007683  -0.010022  -0.000136   0.001456
     8  C   -0.057306   4.830205   0.362662   0.385203  -0.018971  -0.063109
     9  H    0.007683   0.362662   0.683760  -0.025833  -0.013410   0.005682
    10  N   -0.010022   0.385203  -0.025833   6.139723   0.359542   0.418298
    11  H   -0.000136  -0.018971  -0.013410   0.359542   0.573311  -0.024546
    12  C    0.001456  -0.063109   0.005682   0.418298  -0.024546   4.315267
    13  O    0.021099  -0.005120   0.000049  -0.058375   0.003468   0.689724
    14  O    0.000209   0.001897  -0.000151  -0.060699   0.009789   0.397593
    15  C    0.000211  -0.022375  -0.014418   0.001797   0.000098   0.000037
    16  H   -0.000071   0.000466  -0.000584  -0.000043   0.000006  -0.000027
    17  C    0.000576   0.150132  -0.009873  -0.026739   0.000584  -0.003065
    18  H    0.001953  -0.005523   0.005250  -0.007334  -0.000484   0.004403
    19  H   -0.000261  -0.006672  -0.010355   0.006014   0.001441   0.000000
    20  C    0.000013  -0.000279   0.002106  -0.000005  -0.000017   0.000000
    21  O    0.000000   0.000012   0.000039   0.000000   0.000000   0.000000
    22  O   -0.000001  -0.002464   0.008398   0.000007  -0.000035  -0.000001
    23  C    0.000000   0.000053  -0.000244  -0.000001   0.000001   0.000000
    24  H    0.000000  -0.000015   0.000087   0.000000   0.000000   0.000000
    25  H    0.000000   0.000036  -0.000105  -0.000001   0.000002   0.000000
    26  H    0.000000  -0.000008   0.000064   0.000000   0.000000   0.000000
    27  C    0.000000  -0.000171   0.000009   0.004457  -0.000600  -0.052253
    28  H   -0.000029   0.000067   0.000002   0.000263   0.000059  -0.001497
    29  H    0.000042  -0.000050  -0.000001   0.000126   0.000145  -0.001985
    30  C   -0.000001   0.000002   0.000000   0.000072  -0.000187   0.004354
    31  H    0.000000   0.000000   0.000000   0.000004   0.000006  -0.000082
    32  H    0.000000  -0.000001   0.000000  -0.000061   0.000088   0.000195
    33  H    0.000000   0.000001   0.000000  -0.000044   0.000063   0.000197
              13         14         15         16         17         18
     1  C    0.000213  -0.000001  -0.028356  -0.002447  -0.032419  -0.002988
     2  H   -0.000011   0.000000   0.000716   0.001158  -0.000641  -0.000225
     3  C   -0.000008   0.000000   0.125932  -0.003596  -0.027558   0.001178
     4  H    0.000000   0.000000  -0.004798  -0.003366   0.003553   0.000014
     5  H   -0.000001   0.000000  -0.014149   0.004197  -0.013107  -0.000296
     6  C   -0.000160   0.000109  -0.026050  -0.001022  -0.016431  -0.003322
     7  H    0.021099   0.000209   0.000211  -0.000071   0.000576   0.001953
     8  C   -0.005120   0.001897  -0.022375   0.000466   0.150132  -0.005523
     9  H    0.000049  -0.000151  -0.014418  -0.000584  -0.009873   0.005250
    10  N   -0.058375  -0.060699   0.001797  -0.000043  -0.026739  -0.007334
    11  H    0.003468   0.009789   0.000098   0.000006   0.000584  -0.000484
    12  C    0.689724   0.397593   0.000037  -0.000027  -0.003065   0.004403
    13  O    7.680922  -0.054737  -0.000048  -0.000002  -0.002301   0.008367
    14  O   -0.054737   7.778632  -0.000002   0.000000  -0.000040  -0.000117
    15  C   -0.000048  -0.000002   4.923159   0.373954   0.502669   0.001088
    16  H   -0.000002   0.000000   0.373954   0.689527  -0.030881  -0.014514
    17  C   -0.002301  -0.000040   0.502669  -0.030881   4.761338   0.358709
    18  H    0.008367  -0.000117   0.001088  -0.014514   0.358709   0.660463
    19  H   -0.000246  -0.000018  -0.012069   0.008790   0.362891  -0.047950
    20  C   -0.000001   0.000000   0.399084  -0.033843  -0.045215   0.006648
    21  O    0.000000   0.000000  -0.051636   0.004619   0.003778  -0.000141
    22  O    0.000000   0.000000  -0.075507   0.003974   0.005799   0.000212
    23  C    0.000000   0.000000   0.009655  -0.000282  -0.000746   0.000014
    24  H    0.000000   0.000000   0.000408  -0.000066   0.000139   0.000006
    25  H    0.000000   0.000000  -0.000418   0.000014  -0.000109  -0.000002
    26  H    0.000000   0.000000   0.000910   0.000009  -0.000108   0.000005
    27  C    0.003728   0.298085   0.000000   0.000000   0.000005  -0.000030
    28  H    0.006404  -0.029376   0.000001   0.000000  -0.000012   0.000124
    29  H    0.006681  -0.029425   0.000000   0.000000   0.000002  -0.000017
    30  C    0.001141  -0.034172   0.000000   0.000000   0.000000  -0.000001
    31  H    0.000041   0.003088   0.000000   0.000000   0.000000   0.000000
    32  H   -0.000015   0.003642   0.000000   0.000000   0.000000  -0.000001
    33  H   -0.000017   0.003686   0.000000   0.000000   0.000000   0.000000
              19         20         21         22         23         24
     1  C    0.002302  -0.000887   0.000223  -0.000209  -0.000006   0.000021
     2  H    0.000076  -0.000097   0.000002  -0.000008   0.000000   0.000000
     3  C    0.001729  -0.008417  -0.001790  -0.007925  -0.000019   0.000471
     4  H   -0.000110   0.000535   0.002640  -0.000157  -0.000071   0.000111
     5  H    0.000851  -0.008667  -0.001755   0.015163  -0.000409  -0.001234
     6  C   -0.000516   0.000657  -0.000013   0.000071   0.000005  -0.000004
     7  H   -0.000261   0.000013   0.000000  -0.000001   0.000000   0.000000
     8  C   -0.006672  -0.000279   0.000012  -0.002464   0.000053  -0.000015
     9  H   -0.010355   0.002106   0.000039   0.008398  -0.000244   0.000087
    10  N    0.006014  -0.000005   0.000000   0.000007  -0.000001   0.000000
    11  H    0.001441  -0.000017   0.000000  -0.000035   0.000001   0.000000
    12  C    0.000000   0.000000   0.000000  -0.000001   0.000000   0.000000
    13  O   -0.000246  -0.000001   0.000000   0.000000   0.000000   0.000000
    14  O   -0.000018   0.000000   0.000000   0.000000   0.000000   0.000000
    15  C   -0.012069   0.399084  -0.051636  -0.075507   0.009655   0.000408
    16  H    0.008790  -0.033843   0.004619   0.003974  -0.000282  -0.000066
    17  C    0.362891  -0.045215   0.003778   0.005799  -0.000746   0.000139
    18  H   -0.047950   0.006648  -0.000141   0.000212   0.000014   0.000006
    19  H    0.685518  -0.022689   0.000267   0.016090  -0.000796   0.000162
    20  C   -0.022689   4.463332   0.712137   0.354121  -0.048996  -0.000405
    21  O    0.000267   0.712137   7.666145  -0.066521   0.002528   0.008856
    22  O    0.016090   0.354121  -0.066521   7.800205   0.313925  -0.030452
    23  C   -0.000796  -0.048996   0.002528   0.313925   4.410197   0.393287
    24  H    0.000162  -0.000405   0.008856  -0.030452   0.393287   0.662140
    25  H   -0.000162   0.004252   0.001201  -0.019063   0.391750  -0.029554
    26  H   -0.000064  -0.002748   0.007675  -0.028622   0.398039  -0.037511
    27  C   -0.000003   0.000000   0.000000   0.000000   0.000000   0.000000
    28  H   -0.000007   0.000000   0.000000   0.000000   0.000000   0.000000
    29  H    0.000000   0.000000   0.000000   0.000000   0.000000   0.000000
    30  C    0.000000   0.000000   0.000000   0.000000   0.000000   0.000000
    31  H    0.000000   0.000000   0.000000   0.000000   0.000000   0.000000
    32  H    0.000000   0.000000   0.000000   0.000000   0.000000   0.000000
    33  H    0.000000   0.000000   0.000000   0.000000   0.000000   0.000000
              25         26         27         28         29         30
     1  C   -0.000002  -0.000002   0.000000   0.000000   0.000001   0.000000
     2  H    0.000000   0.000000   0.000000   0.000000   0.000000   0.000000
     3  C   -0.000014  -0.000079   0.000000   0.000000   0.000000   0.000000
     4  H   -0.000003  -0.000016   0.000000   0.000000   0.000000   0.000000
     5  H   -0.000046   0.000299   0.000000   0.000000   0.000000   0.000000
     6  C    0.000001   0.000001  -0.000011  -0.000021   0.000014   0.000000
     7  H    0.000000   0.000000   0.000000  -0.000029   0.000042  -0.000001
     8  C    0.000036  -0.000008  -0.000171   0.000067  -0.000050   0.000002
     9  H   -0.000105   0.000064   0.000009   0.000002  -0.000001   0.000000
    10  N   -0.000001   0.000000   0.004457   0.000263   0.000126   0.000072
    11  H    0.000002   0.000000  -0.000600   0.000059   0.000145  -0.000187
    12  C    0.000000   0.000000  -0.052253  -0.001497  -0.001985   0.004354
    13  O    0.000000   0.000000   0.003728   0.006404   0.006681   0.001141
    14  O    0.000000   0.000000   0.298085  -0.029376  -0.029425  -0.034172
    15  C   -0.000418   0.000910   0.000000   0.000001   0.000000   0.000000
    16  H    0.000014   0.000009   0.000000   0.000000   0.000000   0.000000
    17  C   -0.000109  -0.000108   0.000005  -0.000012   0.000002   0.000000
    18  H   -0.000002   0.000005  -0.000030   0.000124  -0.000017  -0.000001
    19  H   -0.000162  -0.000064  -0.000003  -0.000007   0.000000   0.000000
    20  C    0.004252  -0.002748   0.000000   0.000000   0.000000   0.000000
[...]
 687,0.00001710,-0.00000478,-0.00000182,-0.00000131,0.00000002,-0.00000
 244,-0.00000397,-0.00000748,-0.00000394,0.00000096,-0.06314151,-0.0017
 0954,0.06981339,0.07385899,-0.00002472,-0.00001534,-0.00000794,-0.0000
 0011,0.00000045,0.00000223,0.00000116,0.00001000,0.00000074,-0.0000038
 5,-0.00000002,-0.00000014,0.00000049,-0.00000025,-0.00000023,0.0000219
 8,0.00002607,0.00000703,0.00000837,-0.00004766,0.00000482,0.00003767,-
 0.00000463,-0.00000091,-0.00000998,0.00000022,0.00000454,0.00008348,-0
 .00028469,-0.00021669,-0.00004570,0.00000759,-0.00005152,0.00032539,0.
 00221411,0.00194985,-0.00069478,-0.00054692,-0.00095318,0.00068601,0.0
 0048774,-0.00310643,-0.00002388,-0.00002226,0.00000220,0.00000172,0.00
 000060,-0.00000143,0.00002183,0.00000845,0.00000481,0.00001200,0.00001
 133,-0.00000719,-0.00000651,-0.00000042,-0.00001472,0.00003488,0.00003
 222,0.00002232,-0.00002216,-0.00000724,-0.00000184,-0.00000674,-0.0000
 2225,-0.00001422,0.00000703,0.00000790,0.00000305,-0.00000104,-0.00000
 152,-0.00000004,-0.00000050,-0.00000056,-0.00000213,-0.00000323,-0.000
 00089,0.00000057,-0.00112779,-0.05027462,-0.00074728,-0.00135255,0.049
 92457,-0.00001313,-0.00003383,0.00001894,-0.00000973,0.00001614,0.0000
 0323,-0.00004048,0.00003484,-0.00000744,-0.00000693,0.00001215,-0.0000
 1848,0.00000550,0.00000375,0.00000290,-0.00007388,0.00003263,0.0000650
 3,0.00003611,-0.00002251,-0.00002334,0.00037825,-0.00038371,-0.0000398
 2,-0.00006635,0.00003237,0.00001461,-0.00117985,0.00094237,-0.00018670
 ,0.00032169,0.00015897,0.00001075,0.00371952,-0.00690841,-0.00213818,0
 .00093966,0.00177808,0.00242069,-0.01280889,0.00160795,-0.01753035,-0.
 00001018,-0.00004637,0.00004552,-0.00001644,0.00000051,-0.00000595,-0.
 00004848,0.00002905,0.00000662,-0.00000430,0.00001916,-0.00000551,0.00
 001022,0.00001690,-0.00003024,0.00009894,0.00005508,0.00001490,-0.0000
 6505,-0.00000672,0.00001058,-0.00002329,-0.00003094,-0.00000758,0.0000
 1975,0.00001666,0.00000508,-0.00000188,-0.00000167,-0.00000078,0.00000
 005,0.00000043,-0.00000224,-0.00000611,-0.00000303,0.00000205,0.061778
 28,-0.00113904,-0.29456529,-0.05922479,0.00506531,0.32132234,0.0000100
 4,-0.00001580,0.00004051,-0.00001699,0.00002269,0.00001139,-0.00005040
 ,0.00004543,-0.00002008,-0.00000670,0.00001156,-0.00001966,0.00000461,
 0.00000397,0.00000286,-0.00017311,0.00010888,0.00007417,0.00001168,-0.
 00001626,-0.00001881,0.00074583,-0.00028786,-0.00040595,-0.00006593,0.
 00002541,0.00003049,-0.00173034,0.00134641,-0.00076101,0.00027942,-0.0
 0001276,0.00049807,0.00405256,-0.00990052,-0.00271748,0.00097916,0.002
 96474,0.00186177,-0.03223270,-0.01990927,-0.00232917,0.00000907,-0.000
 06745,0.00003512,-0.00001930,0.00000280,-0.00000644,-0.00007084,0.0000
 3982,0.00005659,0.00000688,-0.00001286,-0.00000491,0.00003347,0.000031
 44,-0.00002515,0.00012693,0.00007443,0.00003355,-0.00008911,-0.0000119
 1,0.00000382,-0.00004174,-0.00004429,-0.00003115,0.00003414,0.00002755
 ,0.00001879,-0.00000611,-0.00000059,-0.00000175,0.00000066,-0.00000252
 ,-0.00000262,-0.00000677,-0.00000436,0.00000099,-0.09766494,-0.0974521
 2,0.03091275,-0.00118193,-0.00659220,0.00353877,0.11729440,0.00001132,
 0.00000414,-0.00003130,-0.00000427,0.00000589,0.00000354,-0.00001202,-
 0.00000130,0.00001091,-0.00000121,0.00000112,0.00000009,0.00000096,0.0
 0000108,0.00000092,-0.00002434,-0.00001926,-0.00002084,0.00000120,-0.0
 0001247,0.00004016,-0.00001167,-0.00001964,0.00004638,-0.00002926,0.00
 001479,0.00000672,-0.00026277,-0.00014883,0.00038790,-0.00000331,0.000
 00727,0.00010925,0.00210281,-0.00059950,-0.00094062,0.00074187,0.00036
 778,0.00060665,-0.00242666,0.00400754,-0.00380241,-0.00001993,-0.00000
 742,-0.00000565,-0.00000543,-0.00000117,0.00000201,0.00000528,0.000028
 47,-0.00003260,0.00002144,0.00000209,-0.00002271,0.00000961,0.00000231
 ,-0.00000280,0.00003529,0.00000722,0.00000420,-0.00003067,0.00000164,0
 .00000207,-0.00001529,-0.00000164,-0.00000497,0.00001130,0.00000444,0.
 00000530,-0.00000255,0.00000156,-0.00000048,0.00000080,-0.00000111,0.0
 0000133,-0.00000033,-0.00000131,-0.00000033,-0.10353364,-0.24076335,0.
 05903905,0.00065898,0.00033234,-0.00029275,0.11051909,0.25838056,-0.00
 000658,-0.00002151,0.00000986,-0.00000629,0.00001099,0.00000539,-0.000
 02943,0.00002550,-0.00000924,-0.00000709,0.00000427,-0.00000844,0.0000
 0161,0.00000281,-0.00000128,-0.00007493,0.00009248,0.00005731,0.000008
 63,-0.00003992,-0.00000112,0.00044231,-0.00014342,-0.00022168,-0.00003
 463,0.00001086,0.00001312,-0.00076424,0.00035046,-0.00087298,0.0000665
 2,-0.00002661,0.00019174,0.00172615,-0.00195121,0.00134446,-0.00092318
 ,0.00047209,-0.00014979,-0.01893339,-0.01704003,0.00254939,-0.00002208
 ,-0.00004773,0.00002200,-0.00000820,0.00000197,-0.00000486,-0.00001061
 ,0.00001610,0.00003022,0.00000486,0.00001365,-0.00001464,0.00000628,0.
 00001243,-0.00002543,0.00009671,0.00007009,0.00003981,-0.00006306,-0.0
 0001313,0.00000008,-0.00002480,-0.00004475,-0.00002996,0.00002248,0.00
 002149,0.00001241,-0.00000377,-0.00000183,-0.00000081,-0.00000022,-0.0
 0000205,-0.00000337,-0.00000641,-0.00000306,0.00000080,0.03536503,0.06
 253160,-0.06985538,0.01406393,0.02548282,-0.00687383,-0.02700663,-0.06
 046769,0.06971895,0.00000017,-0.00000881,0.00001423,-0.00001197,0.0000
 1635,0.00000689,-0.00003893,0.00002649,-0.00001171,-0.00000441,0.00000
 973,-0.00000926,0.00000796,0.00000674,0.00000112,-0.00007128,0.0000214
 3,0.00006336,0.00001116,-0.00000125,-0.00000719,0.00019942,-0.00049537
 ,-0.00046328,-0.00014980,0.00009426,0.00002979,-0.00192982,0.00186286,
 0.00019691,0.00007508,0.00010913,0.00011271,-0.00274801,-0.00510470,-0
 .00480134,0.00155868,0.00148876,0.00134435,-0.03626162,0.03403667,0.00
 184927,-0.00001630,-0.00005082,0.00002701,-0.00001334,0.00000066,-0.00
 000404,-0.00002547,0.00003930,0.00001599,0.00000044,-0.00000139,-0.000
 00216,0.00001525,0.00001971,-0.00002503,0.00010398,0.00006707,0.000029
 59,-0.00007101,-0.00001125,0.00000400,-0.00003040,-0.00004401,-0.00002
 145,0.00002569,0.00002360,0.00001285,-0.00000372,-0.00000217,-0.000001
 25,0.00000007,-0.00000083,-0.00000388,-0.00000740,-0.00000335,0.000001
 79,-0.10539239,0.05046542,0.02235105,-0.00336855,0.00654570,0.00203231
 ,0.01024911,-0.01098207,-0.00342713,0.55191191,-0.00000027,-0.00002077
 ,0.00000241,-0.00000604,0.00000984,0.00000393,-0.00003321,0.00002315,-
 0.00000898,-0.00000480,0.00000586,-0.00000829,0.00000347,0.00000429,-0
 .00000058,-0.00005907,0.00005715,0.00004956,0.00001264,-0.00002641,0.0
 0000473,0.00030920,-0.00032649,-0.00020916,-0.00007626,0.00003787,0.00
 000991,-0.00101776,0.00066062,-0.00021206,0.00003281,0.00006451,0.0000
 6499,-0.00044558,-0.00183009,-0.00133965,0.00105124,0.00068238,0.00038
 001,0.00210362,0.00273465,0.00193898,-0.00002151,-0.00005211,0.0000168
 3,-0.00000751,-0.00000020,-0.00000381,-0.00002236,0.00004025,0.0000380
 5,0.00000988,-0.00000352,-0.00000929,0.00000544,0.00001652,-0.00002201
 ,0.00008095,0.00008665,0.00005351,-0.00005143,-0.00001951,-0.00000653,
 -0.00001789,-0.00005766,-0.00003771,0.00001735,0.00002427,0.00001428,-
 0.00000291,-0.00000419,-0.00000110,-0.00000158,-0.00000206,-0.00000657
 ,-0.00000776,-0.00000253,0.00000093,0.06115129,-0.17846932,-0.03080455
 ,-0.00076266,-0.00013848,0.00034528,0.01683060,-0.02028246,-0.00802705
 ,0.03545547,0.52126176,-0.00000204,-0.00001488,0.00000734,-0.00001080,
 0.00001691,0.00000771,-0.00004419,0.00003243,-0.00001068,-0.00000633,0
 .00001060,-0.00001208,0.00000616,0.00000335,0.00000443,-0.00006156,0.0
 0003935,0.00006597,0.00002231,-0.00001307,0.00000248,0.00025677,-0.000
 52820,-0.00037465,-0.00014131,0.00007582,0.00002009,-0.00181216,0.0014
 4998,0.00002084,0.00003732,0.00006088,0.00018132,-0.00170976,-0.003899
 46,-0.00380074,0.00098515,0.00064142,0.00197186,-0.01990036,0.01991307
 ,0.00401595,-0.00001202,-0.00005199,0.00003041,-0.00001590,0.00000133,
 -0.00000454,-0.00004234,0.00002901,0.00001474,0.00000661,0.00000724,-0
 .00001412,0.00002024,0.00002057,-0.00002260,0.00011221,0.00006672,0.00
 003385,-0.00007647,-0.00000987,0.00000253,-0.00003420,-0.00004120,-0.0
 0002853,0.00002797,0.00002438,0.00001802,-0.00000541,-0.00000048,-0.00
 000129,0.00000037,-0.00000325,-0.00000202,-0.00000595,-0.00000410,-0.0
 0000021,0.02970082,-0.03688648,-0.09200307,0.01762069,-0.02629262,-0.0
 0445584,-0.00491282,0.00699170,0.00219865,0.01345127,-0.01438607,0.569
 29493,-0.00000610,-0.00001826,-0.00000965,-0.00000599,0.00001192,0.000
 00532,-0.00002844,0.00002483,-0.00000704,-0.00000620,0.00000644,-0.000
 00857,0.00000308,0.00000310,0.00000158,-0.00004120,0.00004973,0.000053
 64,0.00001107,-0.00003094,0.00000404,0.00027653,-0.00029620,-0.0001548
 3,-0.00005493,0.00003120,0.00001253,-0.00081205,0.00048133,-0.00009241
 ,0.00003851,0.00000973,0.00006714,0.00098305,-0.00176629,-0.00099913,-
 0.00002023,0.00060169,0.00048584,-0.00294119,0.00501298,0.00116775,-0.
 00001792,-0.00004742,0.00001513,-0.00001128,0.00000203,-0.00000294,-0.
 00002538,0.00002414,0.00002316,0.00001157,-0.00000151,-0.00001683,0.00
 001642,0.00001582,-0.00001672,0.00010636,0.00005271,0.00002519,-0.0000
 7499,-0.00000705,0.00000557,-0.00003345,-0.00003185,-0.00002109,0.0000
 2709,0.00001999,0.00001215,-0.00000435,-0.00000015,-0.00000130,0.00000
 061,-0.00000143,-0.00000145,-0.00000508,-0.00000354,0.00000123,-0.0134
 3504,-0.00469551,-0.00924611,0.00024420,-0.00023463,0.00054324,0.00057
 733,0.00035537,-0.00010356,-0.24745723,-0.00069866,-0.11548196,0.26799
 212,0.00000400,0.00001284,0.,0.00000601,-0.00000937,-0.00000459,0.0000
 2447,-0.00001969,0.00000592,0.00000427,-0.00000487,0.00000653,-0.00000
 305,-0.00000316,-0.00000065,0.00004103,-0.00003967,-0.00004038,-0.0000
 1048,0.00002281,-0.00000069,-0.00019385,0.00026134,0.00020768,0.000067
 97,-0.00004077,-0.00001085,0.00093083,-0.00069249,0.00008412,-0.000021
 20,-0.00005573,-0.00007404,0.00033811,0.00209855,0.00114167,-0.0002412
 9,-0.00051806,-0.00039384,0.00590622,-0.00584010,-0.00131474,0.0000142
 0,0.00003882,-0.00001232,0.00000729,-0.00000016,0.00000273,0.00001562,
 -0.00002687,-0.00002033,-0.00000689,0.00000191,0.00000971,-0.00000718,
 -0.00001280,0.00001358,-0.00006893,-0.00005519,-0.00003420,0.00004562,
 0.00001028,0.00000267,0.00001821,0.00003610,0.00002539,-0.00001571,-0.
 00001729,-0.00001231,0.00000288,0.00000171,0.00000108,0.00000064,0.000
 00191,0.00000336,0.00000467,0.00000234,-0.00000021,0.01977693,0.002712
 89,0.01484221,-0.00032708,0.00082886,-0.00032628,-0.00081336,0.0004582
 9,0.00045143,-0.00372104,-0.04597581,-0.00386872,0.00027637,0.04723807
 ,-0.00000312,-0.00000295,-0.00000198,0.00000023,0.00000024,0.00000090,
 0.00000156,0.00000162,-0.00000081,-0.00000069,-0.00000007,-0.00000022,
 -0.00000028,0.00000011,-0.00000035,0.00000069,0.00000562,0.00000321,-0
 .00000083,-0.00000477,-0.00000213,0.00005015,0.00003722,0.00002184,0.0
 0001759,-0.00000956,-0.00000264,0.00021024,-0.00017591,-0.00004390,0.0
 0001453,-0.00001929,-0.00002536,0.00040259,-0.00001296,0.00088468,-0.0
 0009416,0.00008168,-0.00014390,0.00184021,-0.00186993,0.00075822,0.000
 00138,-0.00000241,-0.00000111,0.00000007,0.00000029,0.00000016,0.00000
 043,-0.00000073,0.00000428,-0.00000051,-0.00000143,0.00000061,0.000000
 57,0.00000052,-0.00000054,0.00000866,-0.00000488,-0.00000441,-0.000007
 47,0.00000227,0.00000203,-0.00000467,0.00000355,0.00000261,0.00000350,
 -0.00000066,-0.00000065,-0.00000033,0.00000086,-0.00000010,0.00000055,
 0.00000046,0.00000077,0.00000025,-0.00000021,0.00000052,0.00752387,0.0
 0110015,0.00225202,-0.00023343,0.00055226,0.00024565,-0.00018112,0.000
 27534,0.00027354,-0.11754165,-0.00218353,-0.11120915,0.12697453,0.0030
 4303,0.11675268,0.00000207,0.00000266,-0.00000142,0.00000189,-0.000003
 66,-0.00000175,0.00000805,-0.00000872,0.00000408,0.00000171,-0.0000025
 6,0.00000319,-0.00000093,-0.00000107,-0.00000037,0.00002165,-0.0000096
 3,-0.00001609,-0.00000401,0.00000267,0.00000141,-0.00009773,0.00007801
 ,0.00005125,0.00001506,-0.00000743,-0.00000424,0.00025901,-0.00016609,
 0.00003875,-0.00003047,-0.00000169,-0.00004148,-0.00029413,0.00085510,
 0.00050507,-0.00036286,-0.00026322,-0.00022627,0.00261528,-0.00127072,
 0.00030538,0.00000404,0.00001489,-0.00000609,0.00000453,-0.00000104,0.
 00000112,0.00001247,-0.00000647,-0.00000642,-0.00000063,0.00000263,0.0
 0000172,-0.00000902,-0.00000633,0.00000440,-0.00003898,-0.00001821,-0.
 00000800,0.00002770,0.00000297,-0.00000225,0.00001387,0.00001163,0.000
 00813,-0.00001135,-0.00000852,-0.00000497,0.00000179,0.00000003,0.0000
 0053,-0.00000047,0.00000040,0.00000056,0.00000197,0.00000131,-0.000000
 72,0.00857452,0.01792563,-0.00535407,0.00072511,-0.00081762,-0.0003799
 8,-0.00155805,0.00323473,0.00057740,-0.11197826,-0.11311125,0.03277741
 ,-0.01198962,-0.02203095,0.00766329,0.11744803,-0.00000013,0.00001546,
 0.00000159,-0.00000044,-0.00000077,0.00000127,0.00000984,-0.00000480,0
 .00000262,0.00000244,-0.00000071,0.00000165,-0.00000063,-0.00000191,0.
 00000206,0.00000261,-0.00002604,-0.00002611,-0.00000666,0.00001755,0.0
 0000242,-0.00008700,0.00006869,0.00004230,0.00001137,-0.00000883,0.000
 00331,0.00024373,0.00000382,0.00013750,0.00001613,-0.00004687,0.000018
 37,-0.00029422,-0.00038420,-0.00063855,0.00054062,0.00030497,0.0003510
 7,-0.00085173,0.00248159,-0.00012461,0.00002312,0.00002199,-0.00000660
 ,0.00000014,0.00000066,0.00000185,-0.00000702,-0.00001359,-0.00001051,
 -0.00000568,-0.00000596,0.00000553,0.00000658,-0.00000140,0.00001030,-
 0.00003126,-0.00004600,-0.00003166,0.00001669,0.00001136,0.00000472,0.
 00000173,0.00003163,0.00001918,-0.00000395,-0.00001078,-0.00000446,0.0
 0000020,0.00000295,0.00000026,0.00000129,0.00000066,0.00000403,0.00000
 404,0.00000087,-0.00000067,-0.01524651,-0.02465753,0.00663573,-0.00001
 920,0.00122442,-0.00021060,0.00386451,-0.00297045,-0.00170884,-0.10934
 417,-0.23147132,0.05272399,0.00094915,0.00089801,-0.00061187,0.1193333
 9,0.25390005,0.00000010,0.00000669,0.00000221,0.00000203,-0.00000436,-
 0.00000135,0.00000885,-0.00000680,0.00000217,0.00000191,-0.00000177,0.
 00000238,-0.00000096,-0.00000075,-0.00000052,0.00001352,-0.00001838,-0
 .00002012,-0.00000249,0.00000866,-0.00000093,-0.00010474,0.00005838,0.
 00003476,0.00000697,-0.00000093,-0.00000230,0.00019090,-0.00005144,0.0
 0008452,-0.00003443,0.00003672,-0.00001727,-0.00048487,0.00026185,-0.0
 0007683,0.00020856,-0.00017135,-0.00014231,0.00037868,0.00057502,-0.00
 000189,0.00000227,0.00001006,-0.00000885,0.00000369,-0.00000155,0.0000
 0104,0.00001028,-0.00000085,-0.00000718,-0.00000334,-0.00000578,0.0000
 0438,-0.00000413,-0.00000351,0.00001001,-0.00002934,0.00000004,0.00000
 960,0.00002252,-0.00000253,-0.00000798,0.00000995,-0.00000327,-0.00000
 698,-0.00000734,-0.00000057,0.00000242,0.00000079,-0.00000095,-0.00000
 017,-0.00000077,-0.00000062,-0.00000154,0.00000081,0.00000083,-0.00000
 077,-0.00604566,-0.00853836,0.00133702,-0.00093675,-0.00006250,0.00049
 024,0.00144575,-0.00152900,0.00086963,0.03339462,0.05388525,-0.0619519
 5,-0.00684375,-0.01392330,0.00334172,-0.03632776,-0.05621453,0.0618781
 5,-0.00000226,0.00000440,-0.00000302,0.00000230,-0.00000442,-0.0000007
 7,0.00000922,-0.00000380,0.00000217,0.00000137,-0.00000254,0.00000289,
 -0.00000154,-0.00000157,-0.00000011,0.00002145,-0.00000904,-0.00002041
 ,-0.00000421,-0.00000051,0.00000398,-0.00009717,0.00007209,0.00003164,
 0.00000885,-0.00000518,-0.00000193,0.00020664,-0.00013469,-0.00002171,
 -0.00006960,0.00000277,0.00002146,-0.00026733,0.00101436,0.00037620,-0
 .00027184,-0.00035117,-0.00046914,0.00230522,-0.00153589,0.00022002,0.
 00000117,0.00000862,-0.00001063,0.00000392,-0.00000068,0.00000090,0.00
 001129,-0.00000368,-0.00000239,0.00000011,-0.00000445,0.00000053,-0.00
 000320,-0.00000407,0.00000788,-0.00002554,0.00000031,0.00000958,0.0000
 1934,-0.00000266,-0.00000722,0.00000846,-0.00000228,-0.00000819,-0.000
 00641,-0.00000071,0.00000252,0.00000024,-0.00000056,0.00000004,-0.0000
 0071,-0.00000129,-0.00000080,0.00000095,0.00000063,-0.00000127,-0.0053
 3930,0.00014785,0.01882680,-0.00114294,0.00318027,0.00055744,0.0004996
 8,-0.00034465,-0.00092566,-0.05457902,-0.00071546,0.04925026,0.0066827
 6,-0.00002431,-0.02664662,-0.00336224,0.00087102,0.01512411,0.05539033
 ,0.00000424,0.00000345,0.00000910,0.00000105,-0.00000188,-0.00000233,0
 .00000563,-0.00000639,0.00000042,0.00000151,-0.00000078,0.00000125,-0.
 00000018,0.00000025,-0.00000056,0.00000653,-0.00001977,-0.00000761,0.0
 0000110,0.00001449,-0.00000945,-0.00006621,0.00004315,-0.00000082,0.00
 000529,-0.00000022,-0.00000146,0.00013668,0.00004005,0.00011595,0.0000
 0375,0.00002240,-0.00000821,-0.00046102,-0.00042523,-0.00042803,0.0003
 9564,-0.00006964,0.00042963,-0.00185415,0.00143312,0.00090736,0.000003
 88,0.00001266,0.00000057,0.00000091,-0.00000082,0.00000052,0.00000222,
 -0.00000811,-0.00001305,-0.00000609,0.00000114,0.00000652,-0.00000159,
 -0.00000323,0.00000585,-0.00002216,-0.00001259,-0.00000649,0.00001641,
 0.00000215,-0.00000052,0.00000751,0.00000736,0.00000577,-0.00000609,-0
 .00000357,-0.00000197,0.00000121,-0.00000002,0.00000009,-0.00000007,0.
 00000048,0.00000023,0.00000123,0.00000064,-0.00000019,0.00527023,-0.00
 055011,-0.03050086,0.00382057,-0.00374911,-0.00076179,-0.00077522,0.00
 120138,-0.00003218,-0.00051812,-0.04702684,0.00389165,-0.00009510,-0.0
 0131268,-0.00020404,-0.00373087,0.00066650,0.02569959,-0.00214870,0.04
 974175,0.00000515,0.00000293,0.00000989,0.00000141,-0.00000238,-0.0000
 0418,0.00000889,-0.00001195,0.00000242,0.00000226,-0.00000198,0.000002
 83,-0.00000004,0.00000051,-0.00000132,0.00001028,-0.00001756,-0.000010
 51,-0.00000250,0.00001312,-0.00001019,-0.00008419,0.00009412,0.0000311
 7,0.00001896,-0.00000773,-0.00000399,0.00030357,-0.00009533,0.00014065
 ,0.00001536,-0.00000781,-0.00005739,-0.00042364,0.00013627,-0.00004196
 ,0.00015470,0.00008163,0.00014460,0.00023476,0.00014660,0.00139490,0.0
 0000673,0.00002100,0.00000223,0.00000200,-0.00000009,0.00000052,0.0000
 0851,-0.00001422,-0.00001472,-0.00000574,0.00000641,0.00000784,-0.0000
 0608,-0.00000610,0.00000235,-0.00004062,-0.00003295,-0.00002793,0.0000
 2792,0.00000688,0.00000642,0.00001502,0.00002333,0.00002500,-0.0000128
 7,-0.00001236,-0.00001238,0.00000315,0.00000004,0.00000088,-0.00000006
 ,0.00000253,0.00000162,0.00000200,0.00000161,0.00000058,0.00022134,0.0
 0049545,-0.00880215,0.00054515,-0.00162154,0.00121244,-0.00012062,-0.0
 0037936,0.00073546,0.05138026,0.00045828,-0.30399967,0.00360929,0.0001
 9636,-0.01310817,0.00043819,-0.00038077,-0.00582131,-0.05631855,0.0009
 0506,0.32819408\\-0.00000078,-0.00000052,-0.00000314,-0.00000121,-0.00
 000049,-0.00000446,-0.00000107,-0.00000109,-0.00000259,-0.00000084,-0.
 00000147,-0.00000273,-0.00000046,-0.00000222,-0.00000106,-0.00000024,-
 0.00000094,-0.00000247,-0.00000107,-0.00000010,-0.00000338,-0.00000049
 ,-0.00000104,-0.00000088,-0.00000015,-0.00000165,0.00000012,-0.0000001
 7,-0.00000071,-0.00000019,0.00000016,-0.00000109,0.00000088,-0.0000004
 3,0.00000033,-0.00000013,-0.00000012,0.00000158,-0.00000177,0.00000076
 ,0.00000041,0.00000028,-0.00000014,0.00000039,-0.00000017,-0.00000002,
 0.00000151,-0.00000141,0.00000017,0.00000127,0.00000007,0.,0.00000199,
 -0.00000057,0.00000032,0.00000076,0.00000170,0.00000035,-0.00000022,0.
 00000055,-0.00000031,0.00000003,0.00000067,0.00000032,-0.00000147,0.00
 000186,0.00000021,-0.00000248,0.00000293,0.00000046,-0.00000337,0.0000
 0241,0.00000040,-0.00000307,0.00000382,0.00000091,-0.00000142,0.000003
 51,-0.00000276,0.00000682,0.00000185,0.00000084,0.00000298,-0.00000015
 ,-0.00000006,0.00000157,-0.00000111,0.00000072,0.00000185,0.00000131,0
 .00000500,0.00000301,0.00000375,-0.00000162,-0.00000205,0.00000392,0.0
 0000133,0.00000090,-0.00000340\\\@


 DEMOCRATS BUY MOST OF THE BOOKS THAT HAVE BEEN
 BANNED; REPUBLICANS FORM CENSORSHIP COMMITTEES AND
 READ THEM AS A GROUP.
 Job cpu time:       0 days  3 hours 51 minutes  9.2 seconds.
 File lengths (MBytes):  RWF=    463 Int=      0 D2E=      0 Chk=     23 Scr=      1
 Normal termination of Gaussian 09 at Mon Mar 20 18:59:38 2017.
