 Entering Gaussian System, Link 0=g09
 Input=da_meta_endo_full-b3lyp_d3bj-dz-ts.gjf
 Output=da_meta_endo_full-b3lyp_d3bj-dz-ts.out
 Initial command:
 /n/sw/g09_D.01/g09/l1.exe "/scratch/ekwan_da_meta_endo_full-b3lyp_d3bj-dz-ts/Gau-31738.inp" -scrdir="/scratch/ekwan_da_meta_endo_full-b3lyp_d3bj-dz-ts/"
 Entering Link 1 = /n/sw/g09_D.01/g09/l1.exe PID=     31739.
  
 Copyright (c) 1988,1990,1992,1993,1995,1998,2003,2009,2013,
            Gaussian, Inc.  All Rights Reserved.
  
 This is part of the Gaussian(R) 09 program.  It is based on
 the Gaussian(R) 03 system (copyright 2003, Gaussian, Inc.),
 the Gaussian(R) 98 system (copyright 1998, Gaussian, Inc.),
 the Gaussian(R) 94 system (copyright 1995, Gaussian, Inc.),
 the Gaussian 92(TM) system (copyright 1992, Gaussian, Inc.),
 the Gaussian 90(TM) system (copyright 1990, Gaussian, Inc.),
 the Gaussian 88(TM) system (copyright 1988, Gaussian, Inc.),
 the Gaussian 86(TM) system (copyright 1986, Carnegie Mellon
 University), and the Gaussian 82(TM) system (copyright 1983,
 Carnegie Mellon University). Gaussian is a federally registered
 trademark of Gaussian, Inc.
  
 This software contains proprietary and confidential information,
 including trade secrets, belonging to Gaussian, Inc.
  
 This software is provided under written license and may be
 used, copied, transmitted, or stored only in accord with that
 written license.
  
 The following legend is applicable only to US Government
 contracts under FAR:
  
                    RESTRICTED RIGHTS LEGEND
  
 Use, reproduction and disclosure by the US Government is
 subject to restrictions as set forth in subparagraphs (a)
 and (c) of the Commercial Computer Software - Restricted
 Rights clause in FAR 52.227-19.
  
 Gaussian, Inc.
 340 Quinnipiac St., Bldg. 40, Wallingford CT 06492
  
  
 ---------------------------------------------------------------
 Warning -- This program may not be used in any manner that
 competes with the business of Gaussian, Inc. or will provide
 assistance to any competitor of Gaussian, Inc.  The licensee
 of this program is prohibited from giving any competitor of
 Gaussian, Inc. access to this program.  By using this program,
 the user acknowledges that Gaussian, Inc. is engaged in the
 business of creating and licensing software in the field of
 computational chemistry and represents and warrants to the
 licensee that it is not a competitor of Gaussian, Inc. and that
 it will not use this program in any manner prohibited above.
 ---------------------------------------------------------------
  

 Cite this work as:
 Gaussian 09, Revision D.01,
 M. J. Frisch, G. W. Trucks, H. B. Schlegel, G. E. Scuseria, 
 M. A. Robb, J. R. Cheeseman, G. Scalmani, V. Barone, B. Mennucci, 
 G. A. Petersson, H. Nakatsuji, M. Caricato, X. Li, H. P. Hratchian, 
 A. F. Izmaylov, J. Bloino, G. Zheng, J. L. Sonnenberg, M. Hada, 
 M. Ehara, K. Toyota, R. Fukuda, J. Hasegawa, M. Ishida, T. Nakajima, 
 Y. Honda, O. Kitao, H. Nakai, T. Vreven, J. A. Montgomery, Jr., 
 J. E. Peralta, F. Ogliaro, M. Bearpark, J. J. Heyd, E. Brothers, 
 K. N. Kudin, V. N. Staroverov, T. Keith, R. Kobayashi, J. Normand, 
 K. Raghavachari, A. Rendell, J. C. Burant, S. S. Iyengar, J. Tomasi, 
 M. Cossi, N. Rega, J. M. Millam, M. Klene, J. E. Knox, J. B. Cross, 
 V. Bakken, C. Adamo, J. Jaramillo, R. Gomperts, R. E. Stratmann, 
 O. Yazyev, A. J. Austin, R. Cammi, C. Pomelli, J. W. Ochterski, 
 R. L. Martin, K. Morokuma, V. G. Zakrzewski, G. A. Voth, 
 P. Salvador, J. J. Dannenberg, S. Dapprich, A. D. Daniels, 
 O. Farkas, J. B. Foresman, J. V. Ortiz, J. Cioslowski, 
 and D. J. Fox, Gaussian, Inc., Wallingford CT, 2013.
 
 ******************************************
 Gaussian 09:  EM64L-G09RevD.01 24-Apr-2013
                20-Mar-2017 
 ******************************************
 %nprocshared=8
 Will use up to    8 processors via shared memory.
 %mem=3GB
 ----------------------------------------------------------------------
 #p b3lyp empiricaldispersion=gd3bj cc-pVDZ scrf=(pcm,solvent=1,4-dioxa
 ne) opt=(ts,calcfc,maxstep=5,noeigentest) freq=noraman temperature=383
 ----------------------------------------------------------------------
 1/5=1,8=5,10=4,11=1,14=-1,18=20,26=3,38=1,112=383000/1,3;
 2/9=110,12=2,17=6,18=5,40=1/2;
 3/5=16,11=2,16=1,25=1,30=1,70=2201,71=2,72=31,74=-5,124=41,140=1/1,2,3;
 4//1;
 5/5=2,38=5,53=31/2;
 8/6=4,10=90,11=11/1;
 11/6=1,8=1,9=11,15=111,16=1/1,2,10;
 10/6=1,13=1/2;
 6/7=2,8=2,9=2,10=2,28=1/1;
 7/10=1,18=20,25=1/1,2,3,16;
 1/5=1,8=5,10=4,11=1,14=-1,18=20,26=3/3(2);
 2/9=110/2;
 99//99;
 2/9=110/2;
 3/5=16,11=2,16=1,25=1,30=1,70=2205,71=1,72=31,74=-5,124=41/1,2,3;
 4/5=5,16=3,69=1/1;
 5/5=2,38=5,53=31/2;
 7//1,2,3,16;
 1/5=1,8=5,11=1,14=-1,18=20,26=3/3(-5);
 2/9=110/2;
 6/7=2,8=2,9=2,10=2,19=2,28=1/1;
 99/9=1/99;
 Leave Link    1 at Mon Mar 20 17:38:38 2017, MaxMem=   402653184 cpu:         0.6
 (Enter /n/sw/g09_D.01/g09/l101.exe)
 -------------------
 Title Card Required
 -------------------
 Symbolic Z-matrix:
 Charge =  0 Multiplicity = 1
 C                     1.27057  -1.3034    1.48264 
 H                     1.76292  -0.78836   2.30396 
 C                     2.053    -1.96575   0.5514 
 H                     3.12753  -2.0364    0.68781 
 H                     1.62772  -2.71737  -0.10391 
 C                    -0.08634  -1.03713   1.27604 
 H                    -0.59389  -0.33671   1.92731 
 C                    -0.72525  -1.43266   0.09812 
 H                    -0.42823  -2.36189  -0.37222 
 N                    -2.07353  -1.13379  -0.18501 
 H                    -2.5435   -1.71073  -0.86866 
 C                    -2.69695   0.05363   0.10551 
 O                    -2.24533   0.95633   0.7863 
 O                    -3.92024   0.06829  -0.48042 
 C                     1.79803  -0.5799   -1.24876 
 H                     2.31614  -1.28671  -1.88733 
 C                     0.42646  -0.36885  -1.4016 
 H                    -0.08721  -0.88202  -2.20917 
 H                     0.0018    0.58072  -1.10081 
 C                     2.68923   0.43131  -0.65773 
 O                     3.90512   0.44325  -0.76223 
 O                     2.0026    1.36683   0.04498 
 C                     2.80727   2.34703   0.70995 
 H                     2.10418   3.00671   1.21897 
 H                     3.47553   1.87028   1.43269 
 H                     3.40824   2.90867  -0.01005 
 C                    -4.68993   1.25441  -0.23164 
 H                    -4.8678    1.3795    0.83934 
 H                    -4.17131   2.1366   -0.61498 
 C                    -6.01977   1.0426   -0.9788 
 H                    -6.64928   1.89586  -0.83538 
 H                    -5.82558   0.91415  -2.02316 
 H                    -6.50844   0.17063  -0.59699 
 
 Add virtual bond connecting atoms C15        and C3         Dist= 4.32D+00.
 Add virtual bond connecting atoms C17        and C8         Dist= 4.10D+00.
 NAtoms=     33 NQM=       33 NQMF=       0 NMMI=      0 NMMIF=      0
                NMic=       0 NMicF=      0.
                    Isotopes and Nuclear Properties:
 (Nuclear quadrupole moments (NQMom) in fm**2, nuclear magnetic moments (NMagM)
  in nuclear magnetons)

  Atom         1           2           3           4           5           6           7           8           9          10
 IAtWgt=          12           1          12           1           1          12           1          12           1          14
 AtmWgt=  12.0000000   1.0078250  12.0000000   1.0078250   1.0078250  12.0000000   1.0078250  12.0000000   1.0078250  14.0030740
 NucSpn=           0           1           0           1           1           0           1           0           1           2
 AtZEff=   0.0000000   0.0000000   0.0000000   0.0000000   0.0000000   0.0000000   0.0000000   0.0000000   0.0000000   0.0000000
 NQMom=    0.0000000   0.0000000   0.0000000   0.0000000   0.0000000   0.0000000   0.0000000   0.0000000   0.0000000   2.0440000
 NMagM=    0.0000000   2.7928460   0.0000000   2.7928460   2.7928460   0.0000000   2.7928460   0.0000000   2.7928460   0.4037610
 AtZNuc=   6.0000000   1.0000000   6.0000000   1.0000000   1.0000000   6.0000000   1.0000000   6.0000000   1.0000000   7.0000000

  Atom        11          12          13          14          15          16          17          18          19          20
 IAtWgt=           1          12          16          16          12           1          12           1           1          12
 AtmWgt=   1.0078250  12.0000000  15.9949146  15.9949146  12.0000000   1.0078250  12.0000000   1.0078250   1.0078250  12.0000000
 NucSpn=           1           0           0           0           0           1           0           1           1           0
 AtZEff=   0.0000000   0.0000000   0.0000000   0.0000000   0.0000000   0.0000000   0.0000000   0.0000000   0.0000000   0.0000000
 NQMom=    0.0000000   0.0000000   0.0000000   0.0000000   0.0000000   0.0000000   0.0000000   0.0000000   0.0000000   0.0000000
 NMagM=    2.7928460   0.0000000   0.0000000   0.0000000   0.0000000   2.7928460   0.0000000   2.7928460   2.7928460   0.0000000
 AtZNuc=   1.0000000   6.0000000   8.0000000   8.0000000   6.0000000   1.0000000   6.0000000   1.0000000   1.0000000   6.0000000

  Atom        21          22          23          24          25          26          27          28          29          30
 IAtWgt=          16          16          12           1           1           1          12           1           1          12
 AtmWgt=  15.9949146  15.9949146  12.0000000   1.0078250   1.0078250   1.0078250  12.0000000   1.0078250   1.0078250  12.0000000
 NucSpn=           0           0           0           1           1           1           0           1           1           0
 AtZEff=   0.0000000   0.0000000   0.0000000   0.0000000   0.0000000   0.0000000   0.0000000   0.0000000   0.0000000   0.0000000
 NQMom=    0.0000000   0.0000000   0.0000000   0.0000000   0.0000000   0.0000000   0.0000000   0.0000000   0.0000000   0.0000000
 NMagM=    0.0000000   0.0000000   0.0000000   2.7928460   2.7928460   2.7928460   0.0000000   2.7928460   2.7928460   0.0000000
 AtZNuc=   8.0000000   8.0000000   6.0000000   1.0000000   1.0000000   1.0000000   6.0000000   1.0000000   1.0000000   6.0000000

  Atom        31          32          33
 IAtWgt=           1           1           1
 AtmWgt=   1.0078250   1.0078250   1.0078250
 NucSpn=           1           1           1
 AtZEff=   0.0000000   0.0000000   0.0000000
 NQMom=    0.0000000   0.0000000   0.0000000
 NMagM=    2.7928460   2.7928460   2.7928460
 AtZNuc=   1.0000000   1.0000000   1.0000000
 Leave Link  101 at Mon Mar 20 17:38:38 2017, MaxMem=   402653184 cpu:         1.6
 (Enter /n/sw/g09_D.01/g09/l103.exe)

 GradGradGradGradGradGradGradGradGradGradGradGradGradGradGradGradGradGrad
 Berny optimization.
 Initialization pass.
                           ----------------------------
                           !    Initial Parameters    !
                           ! (Angstroms and Degrees)  !
 --------------------------                            --------------------------
 ! Name  Definition              Value          Derivative Info.                !
 --------------------------------------------------------------------------------
 ! R1    R(1,2)                  1.0873         calculate D2E/DX2 analytically  !
 ! R2    R(1,3)                  1.385          calculate D2E/DX2 analytically  !
 ! R3    R(1,6)                  1.3981         calculate D2E/DX2 analytically  !
 ! R4    R(3,4)                  1.0855         calculate D2E/DX2 analytically  !
 ! R5    R(3,5)                  1.0841         calculate D2E/DX2 analytically  !
 ! R6    R(3,15)                 2.2861         calculate D2E/DX2 analytically  !
 ! R7    R(6,7)                  1.0827         calculate D2E/DX2 analytically  !
 ! R8    R(6,8)                  1.3972         calculate D2E/DX2 analytically  !
 ! R9    R(8,9)                  1.083          calculate D2E/DX2 analytically  !
 ! R10   R(8,10)                 1.4097         calculate D2E/DX2 analytically  !
 ! R11   R(8,17)                 2.1696         calculate D2E/DX2 analytically  !
 ! R12   R(10,11)                1.0105         calculate D2E/DX2 analytically  !
 ! R13   R(10,12)                1.3722         calculate D2E/DX2 analytically  !
 ! R14   R(12,13)                1.2175         calculate D2E/DX2 analytically  !
 ! R15   R(12,14)                1.3565         calculate D2E/DX2 analytically  !
 ! R16   R(14,27)                1.4357         calculate D2E/DX2 analytically  !
 ! R17   R(15,16)                1.0843         calculate D2E/DX2 analytically  !
 ! R18   R(15,17)                1.3961         calculate D2E/DX2 analytically  !
 ! R19   R(15,20)                1.4718         calculate D2E/DX2 analytically  !
 ! R20   R(17,18)                1.086          calculate D2E/DX2 analytically  !
 ! R21   R(17,19)                1.0828         calculate D2E/DX2 analytically  !
 ! R22   R(20,21)                1.2204         calculate D2E/DX2 analytically  !
 ! R23   R(20,22)                1.3566         calculate D2E/DX2 analytically  !
 ! R24   R(22,23)                1.4319         calculate D2E/DX2 analytically  !
 ! R25   R(23,24)                1.0902         calculate D2E/DX2 analytically  !
 ! R26   R(23,25)                1.0937         calculate D2E/DX2 analytically  !
 ! R27   R(23,26)                1.0932         calculate D2E/DX2 analytically  !
 ! R28   R(27,28)                1.0928         calculate D2E/DX2 analytically  !
 ! R29   R(27,29)                1.0928         calculate D2E/DX2 analytically  !
 ! R30   R(27,30)                1.54           calculate D2E/DX2 analytically  !
 ! R31   R(30,31)                1.07           calculate D2E/DX2 analytically  !
 ! R32   R(30,32)                1.07           calculate D2E/DX2 analytically  !
 ! R33   R(30,33)                1.07           calculate D2E/DX2 analytically  !
 ! A1    A(2,1,3)              118.5955         calculate D2E/DX2 analytically  !
 ! A2    A(2,1,6)              117.4433         calculate D2E/DX2 analytically  !
 ! A3    A(3,1,6)              122.6847         calculate D2E/DX2 analytically  !
 ! A4    A(1,3,4)              120.3904         calculate D2E/DX2 analytically  !
 ! A5    A(1,3,5)              121.0915         calculate D2E/DX2 analytically  !
 ! A6    A(1,3,15)             100.1683         calculate D2E/DX2 analytically  !
 ! A7    A(4,3,5)              114.7834         calculate D2E/DX2 analytically  !
 ! A8    A(4,3,15)             104.4076         calculate D2E/DX2 analytically  !
 ! A9    A(5,3,15)              84.2926         calculate D2E/DX2 analytically  !
 ! A10   A(1,6,7)              119.2915         calculate D2E/DX2 analytically  !
 ! A11   A(1,6,8)              120.9611         calculate D2E/DX2 analytically  !
 ! A12   A(7,6,8)              118.4161         calculate D2E/DX2 analytically  !
 ! A13   A(6,8,9)              118.9214         calculate D2E/DX2 analytically  !
 ! A14   A(6,8,10)             123.1375         calculate D2E/DX2 analytically  !
 ! A15   A(6,8,17)             101.6082         calculate D2E/DX2 analytically  !
 ! A16   A(9,8,10)             110.9148         calculate D2E/DX2 analytically  !
 ! A17   A(9,8,17)              88.5628         calculate D2E/DX2 analytically  !
 ! A18   A(10,8,17)            105.362          calculate D2E/DX2 analytically  !
 ! A19   A(8,10,11)            117.3642         calculate D2E/DX2 analytically  !
 ! A20   A(8,10,12)            125.1305         calculate D2E/DX2 analytically  !
 ! A21   A(11,10,12)           115.2136         calculate D2E/DX2 analytically  !
 ! A22   A(10,12,13)           126.2592         calculate D2E/DX2 analytically  !
 ! A23   A(10,12,14)           109.1239         calculate D2E/DX2 analytically  !
 ! A24   A(13,12,14)           124.6146         calculate D2E/DX2 analytically  !
 ! A25   A(12,14,27)           114.6803         calculate D2E/DX2 analytically  !
 ! A26   A(3,15,16)             90.8756         calculate D2E/DX2 analytically  !
 ! A27   A(3,15,17)            106.7033         calculate D2E/DX2 analytically  !
 ! A28   A(3,15,20)             91.8769         calculate D2E/DX2 analytically  !
 ! A29   A(16,15,17)           120.2306         calculate D2E/DX2 analytically  !
 ! A30   A(16,15,20)           113.2671         calculate D2E/DX2 analytically  !
 ! A31   A(17,15,20)           122.3436         calculate D2E/DX2 analytically  !
 ! A32   A(8,17,15)            111.8213         calculate D2E/DX2 analytically  !
 ! A33   A(8,17,18)             91.7908         calculate D2E/DX2 analytically  !
 ! A34   A(8,17,19)             91.7071         calculate D2E/DX2 analytically  !
 ! A35   A(15,17,18)           118.3373         calculate D2E/DX2 analytically  !
 ! A36   A(15,17,19)           119.1722         calculate D2E/DX2 analytically  !
 ! A37   A(18,17,19)           115.8146         calculate D2E/DX2 analytically  !
 ! A38   A(15,20,21)           125.1427         calculate D2E/DX2 analytically  !
 ! A39   A(15,20,22)           112.0447         calculate D2E/DX2 analytically  !
 ! A40   A(21,20,22)           122.8097         calculate D2E/DX2 analytically  !
 ! A41   A(20,22,23)           115.3511         calculate D2E/DX2 analytically  !
 ! A42   A(22,23,24)           105.5816         calculate D2E/DX2 analytically  !
 ! A43   A(22,23,25)           110.5997         calculate D2E/DX2 analytically  !
 ! A44   A(22,23,26)           110.7786         calculate D2E/DX2 analytically  !
 ! A45   A(24,23,25)           110.4425         calculate D2E/DX2 analytically  !
 ! A46   A(24,23,26)           110.5587         calculate D2E/DX2 analytically  !
 ! A47   A(25,23,26)           108.8618         calculate D2E/DX2 analytically  !
 ! A48   A(14,27,28)           110.5885         calculate D2E/DX2 analytically  !
 ! A49   A(14,27,29)           110.5938         calculate D2E/DX2 analytically  !
 ! A50   A(14,27,30)           105.3816         calculate D2E/DX2 analytically  !
 ! A51   A(28,27,29)           109.1849         calculate D2E/DX2 analytically  !
 ! A52   A(28,27,30)           110.5276         calculate D2E/DX2 analytically  !
 ! A53   A(29,27,30)           110.5272         calculate D2E/DX2 analytically  !
 ! A54   A(27,30,31)           109.4712         calculate D2E/DX2 analytically  !
 ! A55   A(27,30,32)           109.4712         calculate D2E/DX2 analytically  !
 ! A56   A(27,30,33)           109.4712         calculate D2E/DX2 analytically  !
 ! A57   A(31,30,32)           109.4713         calculate D2E/DX2 analytically  !
 ! A58   A(31,30,33)           109.4712         calculate D2E/DX2 analytically  !
 ! A59   A(32,30,33)           109.4712         calculate D2E/DX2 analytically  !
 ! D1    D(2,1,3,4)              5.0076         calculate D2E/DX2 analytically  !
 ! D2    D(2,1,3,5)            162.102          calculate D2E/DX2 analytically  !
 ! D3    D(2,1,3,15)          -108.4609         calculate D2E/DX2 analytically  !
 ! D4    D(6,1,3,4)            171.7634         calculate D2E/DX2 analytically  !
 ! D5    D(6,1,3,5)            -31.1421         calculate D2E/DX2 analytically  !
 ! D6    D(6,1,3,15)            58.295          calculate D2E/DX2 analytically  !
 ! D7    D(2,1,6,7)              0.1725         calculate D2E/DX2 analytically  !
 ! D8    D(2,1,6,8)            166.7908         calculate D2E/DX2 analytically  !
 ! D9    D(3,1,6,7)           -166.7269         calculate D2E/DX2 analytically  !
 ! D10   D(3,1,6,8)             -0.1086         calculate D2E/DX2 analytically  !
 ! D11   D(1,3,15,16)         -172.1491         calculate D2E/DX2 analytically  !
 ! D12   D(1,3,15,17)          -50.1228         calculate D2E/DX2 analytically  !
 ! D13   D(1,3,15,20)           74.5365         calculate D2E/DX2 analytically  !
 ! D14   D(4,3,15,16)           62.6302         calculate D2E/DX2 analytically  !
 ! D15   D(4,3,15,17)         -175.3436         calculate D2E/DX2 analytically  !
 ! D16   D(4,3,15,20)          -50.6842         calculate D2E/DX2 analytically  !
 ! D17   D(5,3,15,16)          -51.5295         calculate D2E/DX2 analytically  !
 ! D18   D(5,3,15,17)           70.4968         calculate D2E/DX2 analytically  !
 ! D19   D(5,3,15,20)         -164.8439         calculate D2E/DX2 analytically  !
 ! D20   D(1,6,8,9)             35.0844         calculate D2E/DX2 analytically  !
 ! D21   D(1,6,8,10)          -176.947          calculate D2E/DX2 analytically  !
 ! D22   D(1,6,8,17)           -59.7481         calculate D2E/DX2 analytically  !
 ! D23   D(7,6,8,9)           -158.183          calculate D2E/DX2 analytically  !
 ! D24   D(7,6,8,10)           -10.2144         calculate D2E/DX2 analytically  !
 ! D25   D(7,6,8,17)           106.9844         calculate D2E/DX2 analytically  !
 ! D26   D(6,8,10,11)         -158.8152         calculate D2E/DX2 analytically  !
 ! D27   D(6,8,10,12)           39.2582         calculate D2E/DX2 analytically  !
 ! D28   D(9,8,10,11)           -8.6157         calculate D2E/DX2 analytically  !
 ! D29   D(9,8,10,12)         -170.5423         calculate D2E/DX2 analytically  !
 ! D30   D(17,8,10,11)          85.8088         calculate D2E/DX2 analytically  !
 ! D31   D(17,8,10,12)         -76.1178         calculate D2E/DX2 analytically  !
 ! D32   D(6,8,17,15)           50.8977         calculate D2E/DX2 analytically  !
 ! D33   D(6,8,17,18)          172.503          calculate D2E/DX2 analytically  !
 ! D34   D(6,8,17,19)          -71.5972         calculate D2E/DX2 analytically  !
 ! D35   D(9,8,17,15)          -68.3582         calculate D2E/DX2 analytically  !
 ! D36   D(9,8,17,18)           53.2472         calculate D2E/DX2 analytically  !
 ! D37   D(9,8,17,19)          169.147          calculate D2E/DX2 analytically  !
 ! D38   D(10,8,17,15)        -179.6692         calculate D2E/DX2 analytically  !
 ! D39   D(10,8,17,18)         -58.0638         calculate D2E/DX2 analytically  !
 ! D40   D(10,8,17,19)          57.8359         calculate D2E/DX2 analytically  !
 ! D41   D(8,10,12,13)          -9.6023         calculate D2E/DX2 analytically  !
 ! D42   D(8,10,12,14)         170.9268         calculate D2E/DX2 analytically  !
 ! D43   D(11,10,12,13)       -171.8721         calculate D2E/DX2 analytically  !
 ! D44   D(11,10,12,14)          8.657          calculate D2E/DX2 analytically  !
 ! D45   D(10,12,14,27)        178.9242         calculate D2E/DX2 analytically  !
 ! D46   D(13,12,14,27)         -0.5575         calculate D2E/DX2 analytically  !
 ! D47   D(12,14,27,28)        -60.2464         calculate D2E/DX2 analytically  !
 ! D48   D(12,14,27,29)         60.8281         calculate D2E/DX2 analytically  !
 ! D49   D(12,14,27,30)       -179.708          calculate D2E/DX2 analytically  !
 ! D50   D(3,15,17,8)           -0.0815         calculate D2E/DX2 analytically  !
 ! D51   D(3,15,17,18)        -104.8063         calculate D2E/DX2 analytically  !
 ! D52   D(3,15,17,19)         105.0048         calculate D2E/DX2 analytically  !
 ! D53   D(16,15,17,8)         101.0656         calculate D2E/DX2 analytically  !
 ! D54   D(16,15,17,18)         -3.6591         calculate D2E/DX2 analytically  !
 ! D55   D(16,15,17,19)       -153.8481         calculate D2E/DX2 analytically  !
 ! D56   D(20,15,17,8)        -103.4077         calculate D2E/DX2 analytically  !
 ! D57   D(20,15,17,18)        151.8676         calculate D2E/DX2 analytically  !
 ! D58   D(20,15,17,19)          1.6786         calculate D2E/DX2 analytically  !
 ! D59   D(3,15,20,21)          86.0281         calculate D2E/DX2 analytically  !
 ! D60   D(3,15,20,22)         -93.3613         calculate D2E/DX2 analytically  !
 ! D61   D(16,15,20,21)         -5.7331         calculate D2E/DX2 analytically  !
 ! D62   D(16,15,20,22)        174.8775         calculate D2E/DX2 analytically  !
 ! D63   D(17,15,20,21)       -162.8024         calculate D2E/DX2 analytically  !
 ! D64   D(17,15,20,22)         17.8082         calculate D2E/DX2 analytically  !
 ! D65   D(15,20,22,23)        176.856          calculate D2E/DX2 analytically  !
 ! D66   D(21,20,22,23)         -2.5499         calculate D2E/DX2 analytically  !
 ! D67   D(20,22,23,24)       -179.8555         calculate D2E/DX2 analytically  !
 ! D68   D(20,22,23,25)        -60.3719         calculate D2E/DX2 analytically  !
 ! D69   D(20,22,23,26)         60.4262         calculate D2E/DX2 analytically  !
 ! D70   D(14,27,30,31)        179.9646         calculate D2E/DX2 analytically  !
 ! D71   D(14,27,30,32)        -60.0354         calculate D2E/DX2 analytically  !
 ! D72   D(14,27,30,33)         59.9646         calculate D2E/DX2 analytically  !
 ! D73   D(28,27,30,31)         60.4626         calculate D2E/DX2 analytically  !
 ! D74   D(28,27,30,32)       -179.5374         calculate D2E/DX2 analytically  !
 ! D75   D(28,27,30,33)        -59.5374         calculate D2E/DX2 analytically  !
 ! D76   D(29,27,30,31)        -60.5273         calculate D2E/DX2 analytically  !
 ! D77   D(29,27,30,32)         59.4727         calculate D2E/DX2 analytically  !
 ! D78   D(29,27,30,33)        179.4727         calculate D2E/DX2 analytically  !
 --------------------------------------------------------------------------------
 Trust Radius=5.00D-02 FncErr=1.00D-07 GrdErr=1.00D-06
 Number of steps in this run=    180 maximum allowed number of steps=    198.
 Search for a saddle point of order  1.
 GradGradGradGradGradGradGradGradGradGradGradGradGradGradGradGradGradGrad

 Leave Link  103 at Mon Mar 20 17:38:38 2017, MaxMem=   402653184 cpu:         0.1
 (Enter /n/sw/g09_D.01/g09/l202.exe)
                          Input orientation:                          
 ---------------------------------------------------------------------
 Center     Atomic      Atomic             Coordinates (Angstroms)
 Number     Number       Type             X           Y           Z
 ---------------------------------------------------------------------
      1          6           0        1.270567   -1.303399    1.482635
      2          1           0        1.762921   -0.788359    2.303959
      3          6           0        2.052998   -1.965752    0.551400
      4          1           0        3.127530   -2.036396    0.687808
      5          1           0        1.627722   -2.717367   -0.103906
      6          6           0       -0.086344   -1.037133    1.276043
      7          1           0       -0.593886   -0.336705    1.927305
      8          6           0       -0.725249   -1.432655    0.098117
      9          1           0       -0.428228   -2.361886   -0.372220
     10          7           0       -2.073526   -1.133786   -0.185012
     11          1           0       -2.543496   -1.710733   -0.868660
     12          6           0       -2.696952    0.053630    0.105514
     13          8           0       -2.245326    0.956333    0.786297
     14          8           0       -3.920238    0.068290   -0.480423
     15          6           0        1.798029   -0.579896   -1.248762
     16          1           0        2.316140   -1.286711   -1.887331
     17          6           0        0.426456   -0.368853   -1.401601
     18          1           0       -0.087210   -0.882020   -2.209173
     19          1           0        0.001803    0.580721   -1.100813
     20          6           0        2.689230    0.431305   -0.657730
     21          8           0        3.905115    0.443245   -0.762232
     22          8           0        2.002597    1.366833    0.044981
     23          6           0        2.807269    2.347025    0.709953
     24          1           0        2.104180    3.006711    1.218969
     25          1           0        3.475530    1.870276    1.432688
     26          1           0        3.408242    2.908666   -0.010049
     27          6           0       -4.689926    1.254409   -0.231635
     28          1           0       -4.867799    1.379503    0.839337
     29          1           0       -4.171315    2.136600   -0.614980
     30          6           0       -6.019770    1.042599   -0.978797
     31          1           0       -6.649282    1.895855   -0.835377
     32          1           0       -5.825576    0.914145   -2.023157
     33          1           0       -6.508435    0.170631   -0.596989
 ---------------------------------------------------------------------
                    Distance matrix (angstroms):
                    1          2          3          4          5
     1  C    0.000000
     2  H    1.087314   0.000000
     3  C    1.384958   2.131164   0.000000
     4  H    2.148801   2.455952   1.085457   0.000000
     5  H    2.154989   3.088230   1.084071   1.827555   0.000000
     6  C    1.398136   2.130324   2.442176   3.416655   2.768658
     7  H    2.146722   2.429074   3.398956   4.274838   3.837826
     8  C    2.432464   3.387011   2.865016   3.944128   2.688451
     9  H    2.728880   3.799876   2.677028   3.724650   2.103637
    10  N    3.740692   4.586134   4.273485   5.350468   4.026604
    11  H    4.499065   5.427846   4.817610   5.889753   4.358580
    12  C    4.413524   5.043072   5.180612   6.215454   5.140534
    13  O    4.237072   4.627450   5.202821   6.150911   5.411934
    14  O    5.716606   6.386308   6.393867   7.447516   6.219446
    15  C    2.874405   3.559005   2.286086   2.763923   2.430737
    16  H    3.528480   4.256914   2.545142   2.802092   2.387740
    17  C    3.147176   3.961477   3.001656   3.800280   2.939825
    18  H    3.956079   4.878536   3.657284   4.478799   3.277444
    19  H    3.440040   4.070429   3.663568   4.451813   3.809832
    20  C    3.098865   3.334251   2.759107   2.844667   3.368628
    21  O    3.876988   3.937940   3.310473   2.975882   3.950871
    22  O    3.119753   3.131338   3.371220   3.641520   4.104070
    23  C    4.035354   3.669080   4.381108   4.395161   5.263247
    24  H    4.397895   3.961845   5.017336   5.173230   5.894241
    25  H    3.864786   3.280317   4.185138   3.992247   5.178994
    26  H    4.953711   4.661513   5.090370   5.001944   5.901805
    27  C    6.708843   7.227819   7.513295   8.531553   7.463511
    28  H    6.729884   7.128197   7.692273   8.695781   7.737302
    29  H    6.771090   7.231234   7.545317   8.507896   7.579645
    30  C    8.044338   8.642869   8.749930   9.794431   8.566616
    31  H    8.850560   9.371531   9.621062  10.647476   9.503981
    32  H    8.219691   8.899873   8.774627   9.808829   8.510174
    33  H    8.185993   8.817624   8.898374   9.968625   8.647584
                    6          7          8          9         10
     6  C    0.000000
     7  H    1.082747   0.000000
     8  C    1.397193   2.136420   0.000000
     9  H    2.142108   3.068650   1.083009   0.000000
    10  N    2.468383   2.699362   1.409729   2.061621   0.000000
    11  H    3.330328   3.675099   2.077982   2.268218   1.010502
    12  C    3.061891   2.809657   2.469152   3.348142   1.372233
    13  O    2.979087   2.387698   2.914016   3.956587   2.311180
    14  O    4.359573   4.126232   3.577080   4.255772   2.223196
    15  C    3.183484   3.983441   2.984663   2.983293   4.053060
    16  H    3.980095   4.891034   3.635017   3.314079   4.710673
    17  C    2.807016   3.481917   2.169621   2.400477   2.883595
    18  H    3.488666   4.202920   2.456396   2.383420   2.847115
    19  H    2.876572   3.219630   2.453512   3.061815   2.843451
    20  C    3.687763   4.248658   3.962867   4.195471   5.035555
    21  O    4.719940   5.299334   5.069465   5.176749   6.210021
    22  O    3.414417   3.631378   3.909105   4.470605   4.787564
    23  C    4.488427   4.500245   5.209511   5.814928   6.061284
    24  H    4.599383   4.354277   5.382374   6.145470   6.047157
    25  H    4.600490   4.655702   5.507901   6.033922   6.514090
    26  H    5.425449   5.504798   5.995375   6.529042   6.813355
    27  C    5.358845   4.895938   4.800803   5.591013   3.542767
    28  H    5.375235   4.732375   5.061458   5.930907   3.895366
    29  H    5.507771   5.037703   5.012331   5.857133   3.909094
    30  C    6.679456   6.307783   5.942944   6.574481   4.575980
    31  H    7.492174   7.020296   6.858903   7.552773   5.526232
    32  H    6.901521   6.673931   6.001717   6.526051   4.653029
    33  H    6.797808   6.450685   6.041435   6.590378   4.641083
                   11         12         13         14         15
    11  H    0.000000
    12  C    2.021272   0.000000
    13  O    3.152940   1.217499   0.000000
    14  O    2.282777   1.356453   2.280029   0.000000
    15  C    4.502456   4.737117   4.780187   5.805951   0.000000
    16  H    4.983327   5.558690   5.743388   6.535123   1.084342
    17  C    3.302315   3.493646   3.698842   4.464685   1.396106
    18  H    2.918404   3.611644   4.124300   4.310890   2.137240
    19  H    3.432667   3.002720   2.958354   4.003733   2.143676
    20  C    5.658113   5.453085   5.168241   6.621804   1.471763
    21  O    6.799671   6.670238   6.363107   7.839398   2.392350
    22  O    5.565349   4.879952   4.331617   6.086233   2.346353
    23  C    6.898413   5.993451   5.241047   7.202012   3.663604
    24  H    6.943584   5.745549   4.827987   6.914902   4.364307
    25  H    7.372144   6.569713   5.829349   7.848855   4.000941
    26  H    7.582826   6.740770   6.033954   7.873729   4.036987
    27  C    3.715512   2.351060   2.664790   1.435686   6.818562
    28  H    4.227197   2.647454   2.656925   2.087802   7.254837
    29  H    4.185226   2.651721   2.658203   2.087834   6.588938
    30  C    4.435927   3.632480   4.167665   2.367634   7.988952
    31  H    5.464985   4.460939   4.786163   3.303584   8.812337
    32  H    4.358314   3.880724   4.551154   2.593417   7.807125
    33  H    4.397053   3.877448   4.550264   2.592841   8.365730
                   16         17         18         19         20
    16  H    0.000000
    17  C    2.156224   0.000000
    18  H    2.458343   1.085986   0.000000
    19  H    3.076048   1.082818   1.837388   0.000000
    20  C    2.145389   2.512716   3.440991   2.727803   0.000000
    21  O    2.604503   3.628962   4.448441   3.920380   1.220426
    22  O    3.297489   2.754891   3.808654   2.435979   1.356643
    23  C    4.493454   4.183650   5.227431   3.777478   2.356793
    24  H    5.303536   4.590923   5.628195   3.960657   3.239907
    25  H    4.725810   4.726917   5.790630   4.488692   2.656831
    26  H    4.724200   4.644308   5.605678   4.267660   2.659659
    27  C    7.634368   5.493739   5.446098   4.818884   7.437137
    28  H    8.133412   6.008967   6.104255   5.302382   7.762021
    29  H    7.444797   5.294862   5.322916   4.480146   7.069437
    30  C    8.702788   6.612472   6.357142   6.040494   8.736329
    31  H    9.571527   7.450878   7.257044   6.785054   9.454325
    32  H    8.435032   6.412513   6.015784   5.909335   8.637097
    33  H    9.036700   7.002225   6.703681   6.542569   9.201559
                   21         22         23         24         25
    21  O    0.000000
    22  O    2.263666   0.000000
    23  C    2.645179   1.431943   0.000000
    24  H    3.706735   2.019348   1.090237   0.000000
    25  H    2.653043   2.085358   1.093713   1.793812   0.000000
    26  H    2.625064   2.087131   1.093166   1.794624   1.778840
    27  C    8.649523   6.699181   7.634679   7.164823   8.356072
    28  H    8.966918   6.916177   7.736893   7.169408   8.378786
    29  H    8.253354   6.256619   7.106361   6.595627   7.920739
    30  C    9.945324   8.093925   9.081301   8.642134   9.831634
    31  H   10.654141   8.712629   9.592599   9.059659  10.375769
    32  H    9.823341   8.109403   9.167827   8.818801   9.968331
    33  H   10.418428   8.618625   9.655420   9.247605  10.328985
                   26         27         28         29         30
    26  H    0.000000
    27  C    8.268373   0.000000
    28  H    8.458880   1.092826   0.000000
    29  H    7.642756   1.092782   1.781383   0.000000
    30  C    9.659611   1.540000   2.178567   2.178529   0.000000
    31  H   10.142028   2.148263   2.498993   2.499370   1.070000
    32  H    9.658888   2.148263   3.054139   2.492777   1.070000
    33  H   10.304456   2.148263   2.493209   3.054094   1.070000
                   31         32         33
    31  H    0.000000
    32  H    1.747303   0.000000
    33  H    1.747303   1.747303   0.000000
 Stoichiometry    C11H17NO4
 Framework group  C1[X(C11H17NO4)]
 Deg. of freedom    93
 Full point group                 C1      NOp   1
 Largest Abelian subgroup         C1      NOp   1
 Largest concise Abelian subgroup C1      NOp   1
                         Standard orientation:                         
 ---------------------------------------------------------------------
 Center     Atomic      Atomic             Coordinates (Angstroms)
 Number     Number       Type             X           Y           Z
 ---------------------------------------------------------------------
      1          6           0        1.820759   -1.364841    1.385521
      2          1           0        2.325251   -0.873136    2.213752
      3          6           0        2.590054   -1.925804    0.379731
      4          1           0        3.672245   -1.944509    0.461763
      5          1           0        2.173158   -2.659470   -0.300815
      6          6           0        0.443134   -1.162705    1.258729
      7          1           0       -0.067844   -0.531768    1.975082
      8          6           0       -0.231464   -1.522162    0.089176
      9          1           0        0.090565   -2.403666   -0.451340
     10          7           0       -1.605982   -1.282481   -0.112289
     11          1           0       -2.078075   -1.842860   -0.808147
     12          6           0       -2.276077   -0.151099    0.280099
     13          8           0       -1.839614    0.733097    0.994242
     14          8           0       -3.525904   -0.169637   -0.246736
     15          6           0        2.173610   -0.451297   -1.316910
     16          1           0        2.696094   -1.088768   -2.021493
     17          6           0        0.786934   -0.308225   -1.392875
     18          1           0        0.261766   -0.800071   -2.206295
     19          1           0        0.328150    0.596568   -1.014243
     20          6           0        3.038333    0.570877   -0.705764
     21          8           0        4.245238    0.656737   -0.865292
     22          8           0        2.338870    1.423082    0.084791
     23          6           0        3.122583    2.405116    0.771714
     24          1           0        2.411687    2.993049    1.352730
     25          1           0        3.849989    1.924028    1.431747
     26          1           0        3.656743    3.041342    0.061150
     27          6           0       -4.343874    0.954799    0.110705
     28          1           0       -4.474931    1.005625    1.194453
     29          1           0       -3.892132    1.885817   -0.240444
     30          6           0       -5.695999    0.714238   -0.586064
     31          1           0       -6.361802    1.521021   -0.360877
     32          1           0       -5.547170    0.659383   -1.644242
     33          1           0       -6.118489   -0.204832   -0.237190
 ---------------------------------------------------------------------
 Rotational constants (GHZ):      1.0252680      0.2365912      0.2194652
 Leave Link  202 at Mon Mar 20 17:38:38 2017, MaxMem=   402653184 cpu:         0.0
 (Enter /n/sw/g09_D.01/g09/l301.exe)
 Standard basis: CC-pVDZ (5D, 7F)
 Ernie: Thresh=  0.10000D-02 Tol=  0.10000D-05 Strict=F.
 Ernie:  32 primitive shells out of 437 were deleted.
 There are   325 symmetry adapted cartesian basis functions of A   symmetry.
 There are   309 symmetry adapted basis functions of A   symmetry.
   309 basis functions,   647 primitive gaussians,   325 cartesian basis functions
    61 alpha electrons       61 beta electrons
       nuclear repulsion energy      1131.4785251303 Hartrees.
 IExCor=  402 DFT=T Ex+Corr=B3LYP ExCW=0 ScaHFX=  0.200000
 ScaDFX=  0.800000  0.720000  1.000000  0.810000 ScalE2=  1.000000  1.000000
 IRadAn=      0 IRanWt=     -1 IRanGd=            0 ICorTp=0 IEmpDi=141
 NAtoms=   33 NActive=   33 NUniq=   33 SFac= 1.00D+00 NAtFMM=   60 NAOKFM=F Big=F
 Integral buffers will be    131072 words long.
 Raffenetti 2 integral format.
 Two-electron integral symmetry is turned on.
 R6Disp:  Grimme-D3(BJ) Dispersion energy=       -0.0604680411 Hartrees.
 Nuclear repulsion after empirical dispersion term =     1131.4180570892 Hartrees.
 Force inversion solution in PCM.
 ------------------------------------------------------------------------------
 Polarizable Continuum Model (PCM)
 =================================
 Model                : PCM (using non-symmetric T matrix).
 Atomic radii         : UFF (Universal Force Field).
 Polarization charges : Total charges.
 Charge compensation  : None.
 Solution method      : Matrix inversion.
 Cavity type          : Scaled VdW (van der Waals Surface) (Alpha=1.100).
 Cavity algorithm     : GePol (No added spheres)
                        Default sphere list used, NSphG=   33.
                        Lebedev-Laikov grids with approx.  5.0 points / Ang**2.
                        Smoothing algorithm: Karplus/York (Gamma=1.0000).
                        Polarization charges: spherical gaussians, with
                                              point-specific exponents (IZeta= 3).
                        Self-potential: point-specific (ISelfS= 7).
                        Self-field    : sphere-specific E.n sum rule (ISelfD= 2).
 1st derivatives      : Analytical E(r).r(x)/FMM algorithm (CHGder, D1EAlg=3).
                        Cavity 1st derivative terms included.
 2nd derivatives      : Analytical E(r).r(xy)/FMM algorithm (CHGder, D2EAlg=3).
                        Cavity 2nd derivative terms included.
 Solvent              : 1,4-Dioxane, Eps=   2.209900 Eps(inf)=   2.023222
 ------------------------------------------------------------------------------
 GePol: Number of generator spheres                  =      33
 GePol: Total number of spheres                      =      33
 GePol: Number of exposed spheres                    =      33 (100.00%)
 GePol: Number of points                             =    2454
 GePol: Average weight of points                     =       0.13
 GePol: Minimum weight of points                     =   0.18D-11
 GePol: Maximum weight of points                     =    0.20577
 GePol: Number of points with low weight             =     188
 GePol: Fraction of low-weight points (<1% of avg)   =       7.66%
 GePol: Cavity surface area                          =    319.649 Ang**2
 GePol: Cavity volume                                =    335.649 Ang**3
 Leave Link  301 at Mon Mar 20 17:38:38 2017, MaxMem=   402653184 cpu:         0.7
 (Enter /n/sw/g09_D.01/g09/l302.exe)
 NPDir=0 NMtPBC=     1 NCelOv=     1 NCel=       1 NClECP=     1 NCelD=      1
         NCelK=      1 NCelE2=     1 NClLst=     1 CellRange=     0.0.
 One-electron integrals computed using PRISM.
 NBasis=   309 RedAO= T EigKep=  1.18D-03  NBF=   309
 NBsUse=   309 1.00D-06 EigRej= -1.00D+00 NBFU=   309
 Precomputing XC quadrature grid using
 IXCGrd= 4 IRadAn=           0 IRanWt=          -1 IRanGd=           0 AccXCQ= 0.00D+00.
 Generated NRdTot=       0 NPtTot=           0 NUsed=           0 NTot=          32
 NSgBfM=   323   323   323   323   323 MxSgAt=    33 MxSgA2=    33.
 Leave Link  302 at Mon Mar 20 17:38:39 2017, MaxMem=   402653184 cpu:         4.6
 (Enter /n/sw/g09_D.01/g09/l303.exe)
 DipDrv:  MaxL=1.
 Leave Link  303 at Mon Mar 20 17:38:39 2017, MaxMem=   402653184 cpu:         0.7
 (Enter /n/sw/g09_D.01/g09/l401.exe)
 ExpMin= 1.22D-01 ExpMax= 1.17D+04 ExpMxC= 4.01D+02 IAcc=1 IRadAn=         1 AccDes= 0.00D+00
 Harris functional with IExCor=  402 and IRadAn=       1 diagonalized for initial guess.
 HarFok:  IExCor=  402 AccDes= 0.00D+00 IRadAn=         1 IDoV= 1 UseB2=F ITyADJ=14
 ICtDFT=  3500011 ScaDFX=  1.000000  1.000000  1.000000  1.000000
 FoFCou: FMM=F IPFlag=           0 FMFlag=      100000 FMFlg1=           0
         NFxFlg=           0 DoJE=T BraDBF=F KetDBF=T FulRan=T
         wScrn=  0.000000 ICntrl=     500 IOpCl=  0 I1Cent=   200000004 NGrid=           0
         NMat0=    1 NMatS0=      1 NMatT0=    0 NMatD0=    1 NMtDS0=    0 NMtDT0=    0
 Petite list used in FoFCou.
 Harris En= -785.127761793753    
 JPrj=0 DoOrth=F DoCkMO=F.
 Leave Link  401 at Mon Mar 20 17:38:40 2017, MaxMem=   402653184 cpu:         7.7
 (Enter /n/sw/g09_D.01/g09/l502.exe)
 Closed shell SCF:
 Using DIIS extrapolation, IDIIS=  1040.
 Integral symmetry usage will be decided dynamically.
 IVT=      340497 IEndB=      340497 NGot=   402653184 MDV=   402435278
 LenX=   402435278 LenY=   402329212
 Requested convergence on RMS density matrix=1.00D-08 within 128 cycles.
 Requested convergence on MAX density matrix=1.00D-06.
 Requested convergence on             energy=1.00D-06.
 No special actions if energy rises.
 Fock matrices will be formed incrementally for  20 cycles.

 Cycle   1  Pass 1  IDiag  1:
 FoFJK:  IHMeth= 1 ICntrl=       0 DoSepK=F KAlg= 0 I1Cent=   0 FoldK=F
 IRaf= 820000000 NMat=   1 IRICut=       1 DoRegI=T DoRafI=F ISym2E= 0.
 FoFCou: FMM=F IPFlag=           0 FMFlag=      100000 FMFlg1=           0
         NFxFlg=           0 DoJE=F BraDBF=F KetDBF=F FulRan=T
         wScrn=  0.000000 ICntrl=       0 IOpCl=  0 I1Cent=           0 NGrid=           0
         NMat0=    1 NMatS0=      1 NMatT0=    0 NMatD0=    1 NMtDS0=    0 NMtDT0=    0
 Symmetry not used in FoFCou.
 Inv3:  Mode=1 IEnd=    18066348.
 Iteration    1 A*A^-1 deviation from unit magnitude is 9.21D-15 for   1634.
 Iteration    1 A*A^-1 deviation from orthogonality  is 8.88D-15 for   1836   1024.
 Iteration    1 A^-1*A deviation from unit magnitude is 9.44D-15 for   1634.
 Iteration    1 A^-1*A deviation from orthogonality  is 4.59D-15 for   2386   2085.
 E= -784.654815686788    
 DIIS: error= 2.68D-02 at cycle   1 NSaved=   1.
 NSaved= 1 IEnMin= 1 EnMin= -784.654815686788     IErMin= 1 ErrMin= 2.68D-02
 ErrMax= 2.68D-02  0.00D+00 EMaxC= 1.00D-01 BMatC= 4.63D-01 BMatP= 4.63D-01
 IDIUse=3 WtCom= 7.32D-01 WtEn= 2.68D-01
 Coeff-Com:  0.100D+01
 Coeff-En:   0.100D+01
 Coeff:      0.100D+01
 Gap=     0.201 Goal=   None    Shift=    0.000
 GapD=    0.201 DampG=1.000 DampE=0.500 DampFc=0.5000 IDamp=-1.
 Damping current iteration by 5.00D-01
 RMSDP=4.53D-03 MaxDP=1.85D-01              OVMax= 2.30D-01

 Cycle   2  Pass 1  IDiag  1:
 RMSU=  2.24D-03    CP:  9.83D-01
 E= -784.796113105276     Delta-E=       -0.141297418488 Rises=F Damp=T
 DIIS: error= 1.18D-02 at cycle   2 NSaved=   2.
 NSaved= 2 IEnMin= 2 EnMin= -784.796113105276     IErMin= 2 ErrMin= 1.18D-02
 ErrMax= 1.18D-02  0.00D+00 EMaxC= 1.00D-01 BMatC= 5.92D-02 BMatP= 4.63D-01
 IDIUse=3 WtCom= 8.82D-01 WtEn= 1.18D-01
 Coeff-Com:  0.199D+00 0.801D+00
 Coeff-En:   0.297D+00 0.703D+00
 Coeff:      0.210D+00 0.790D+00
 Gap=     0.272 Goal=   None    Shift=    0.000
 RMSDP=1.27D-03 MaxDP=5.18D-02 DE=-1.41D-01 OVMax= 1.77D-01

 Cycle   3  Pass 1  IDiag  1:
 RMSU=  1.20D-03    CP:  9.77D-01  8.15D-01
 E= -785.046992849655     Delta-E=       -0.250879744379 Rises=F Damp=F
 DIIS: error= 1.30D-02 at cycle   3 NSaved=   3.
 NSaved= 3 IEnMin= 3 EnMin= -785.046992849655     IErMin= 2 ErrMin= 1.18D-02
 ErrMax= 1.30D-02  0.00D+00 EMaxC= 1.00D-01 BMatC= 5.47D-02 BMatP= 5.92D-02
 IDIUse=3 WtCom= 8.70D-01 WtEn= 1.30D-01
 Coeff-Com:  0.704D-01 0.487D+00 0.442D+00
 Coeff-En:   0.000D+00 0.000D+00 0.100D+01
 Coeff:      0.613D-01 0.424D+00 0.515D+00
 Gap=     0.181 Goal=   None    Shift=    0.000
 RMSDP=8.39D-04 MaxDP=4.28D-02 DE=-2.51D-01 OVMax= 8.11D-02

 Cycle   4  Pass 1  IDiag  1:
 RMSU=  5.46D-04    CP:  9.79D-01  8.70D-01  4.78D-01
 E= -785.085989495980     Delta-E=       -0.038996646326 Rises=F Damp=F
 DIIS: error= 5.75D-03 at cycle   4 NSaved=   4.
 NSaved= 4 IEnMin= 4 EnMin= -785.085989495980     IErMin= 4 ErrMin= 5.75D-03
 ErrMax= 5.75D-03  0.00D+00 EMaxC= 1.00D-01 BMatC= 9.97D-03 BMatP= 5.47D-02
 IDIUse=3 WtCom= 9.43D-01 WtEn= 5.75D-02
 Coeff-Com:  0.159D-01 0.107D+00 0.310D+00 0.567D+00
 Coeff-En:   0.000D+00 0.000D+00 0.172D+00 0.828D+00
 Coeff:      0.150D-01 0.101D+00 0.302D+00 0.582D+00
 Gap=     0.178 Goal=   None    Shift=    0.000
 RMSDP=2.86D-04 MaxDP=1.37D-02 DE=-3.90D-02 OVMax= 2.16D-02

 Cycle   5  Pass 1  IDiag  1:
 RMSU=  1.19D-04    CP:  9.79D-01  8.41D-01  6.14D-01  6.50D-01
 E= -785.093710962220     Delta-E=       -0.007721466239 Rises=F Damp=F
 DIIS: error= 1.12D-03 at cycle   5 NSaved=   5.
 NSaved= 5 IEnMin= 5 EnMin= -785.093710962220     IErMin= 5 ErrMin= 1.12D-03
 ErrMax= 1.12D-03  0.00D+00 EMaxC= 1.00D-01 BMatC= 4.93D-04 BMatP= 9.97D-03
 IDIUse=3 WtCom= 9.89D-01 WtEn= 1.12D-02
 Coeff-Com:  0.277D-02 0.158D-01 0.120D+00 0.314D+00 0.547D+00
 Coeff-En:   0.000D+00 0.000D+00 0.000D+00 0.000D+00 0.100D+01
 Coeff:      0.274D-02 0.157D-01 0.119D+00 0.311D+00 0.552D+00
 Gap=     0.178 Goal=   None    Shift=    0.000
 RMSDP=6.65D-05 MaxDP=3.30D-03 DE=-7.72D-03 OVMax= 5.45D-03

 Cycle   6  Pass 1  IDiag  1:
 RMSU=  3.62D-05    CP:  9.79D-01  8.48D-01  6.08D-01  6.85D-01  5.84D-01
 E= -785.094090007451     Delta-E=       -0.000379045232 Rises=F Damp=F
 DIIS: error= 3.68D-04 at cycle   6 NSaved=   6.
 NSaved= 6 IEnMin= 6 EnMin= -785.094090007451     IErMin= 6 ErrMin= 3.68D-04
 ErrMax= 3.68D-04  0.00D+00 EMaxC= 1.00D-01 BMatC= 4.71D-05 BMatP= 4.93D-04
 IDIUse=3 WtCom= 9.96D-01 WtEn= 3.68D-03
 Coeff-Com:  0.701D-04-0.120D-02 0.373D-01 0.118D+00 0.309D+00 0.537D+00
 Coeff-En:   0.000D+00 0.000D+00 0.000D+00 0.000D+00 0.327D-02 0.997D+00
 Coeff:      0.699D-04-0.120D-02 0.371D-01 0.117D+00 0.308D+00 0.539D+00
 Gap=     0.178 Goal=   None    Shift=    0.000
 RMSDP=2.04D-05 MaxDP=1.05D-03 DE=-3.79D-04 OVMax= 1.77D-03

 Cycle   7  Pass 1  IDiag  1:
 RMSU=  1.35D-05    CP:  9.79D-01  8.47D-01  6.10D-01  6.90D-01  6.24D-01
                    CP:  6.08D-01
 E= -785.094124284888     Delta-E=       -0.000034277437 Rises=F Damp=F
 DIIS: error= 1.09D-04 at cycle   7 NSaved=   7.
 NSaved= 7 IEnMin= 7 EnMin= -785.094124284888     IErMin= 7 ErrMin= 1.09D-04
 ErrMax= 1.09D-04  0.00D+00 EMaxC= 1.00D-01 BMatC= 4.42D-06 BMatP= 4.71D-05
 IDIUse=3 WtCom= 9.99D-01 WtEn= 1.09D-03
 Coeff-Com: -0.130D-03-0.196D-02 0.116D-01 0.407D-01 0.134D+00 0.312D+00
 Coeff-Com:  0.504D+00
 Coeff-En:   0.000D+00 0.000D+00 0.000D+00 0.000D+00 0.000D+00 0.000D+00
 Coeff-En:   0.100D+01
 Coeff:     -0.130D-03-0.195D-02 0.115D-01 0.407D-01 0.134D+00 0.311D+00
 Coeff:      0.505D+00
 Gap=     0.178 Goal=   None    Shift=    0.000
 RMSDP=6.72D-06 MaxDP=2.74D-04 DE=-3.43D-05 OVMax= 5.82D-04

 Cycle   8  Pass 1  IDiag  1:
 RMSU=  4.07D-06    CP:  9.79D-01  8.47D-01  6.10D-01  6.91D-01  6.27D-01
                    CP:  6.47D-01  6.23D-01
 E= -785.094127646440     Delta-E=       -0.000003361551 Rises=F Damp=F
 DIIS: error= 3.75D-05 at cycle   8 NSaved=   8.
 NSaved= 8 IEnMin= 8 EnMin= -785.094127646440     IErMin= 8 ErrMin= 3.75D-05
 ErrMax= 3.75D-05  0.00D+00 EMaxC= 1.00D-01 BMatC= 4.85D-07 BMatP= 4.42D-06
 IDIUse=1 WtCom= 1.00D+00 WtEn= 0.00D+00
 Coeff-Com: -0.509D-04-0.113D-02 0.337D-02 0.128D-01 0.521D-01 0.136D+00
 Coeff-Com:  0.301D+00 0.496D+00
 Coeff:     -0.509D-04-0.113D-02 0.337D-02 0.128D-01 0.521D-01 0.136D+00
 Coeff:      0.301D+00 0.496D+00
 Gap=     0.178 Goal=   None    Shift=    0.000
 RMSDP=2.21D-06 MaxDP=1.37D-04 DE=-3.36D-06 OVMax= 1.72D-04

 Cycle   9  Pass 1  IDiag  1:
 RMSU=  1.43D-06    CP:  9.79D-01  8.47D-01  6.10D-01  6.90D-01  6.31D-01
                    CP:  6.52D-01  6.58D-01  6.33D-01
 E= -785.094127998614     Delta-E=       -0.000000352174 Rises=F Damp=F
 DIIS: error= 1.12D-05 at cycle   9 NSaved=   9.
 NSaved= 9 IEnMin= 9 EnMin= -785.094127998614     IErMin= 9 ErrMin= 1.12D-05
 ErrMax= 1.12D-05  0.00D+00 EMaxC= 1.00D-01 BMatC= 5.50D-08 BMatP= 4.85D-07
 IDIUse=1 WtCom= 1.00D+00 WtEn= 0.00D+00
 Coeff-Com:  0.350D-05-0.310D-03 0.206D-03 0.831D-03 0.878D-02 0.266D-01
 Coeff-Com:  0.852D-01 0.283D+00 0.595D+00
 Coeff:      0.350D-05-0.310D-03 0.206D-03 0.831D-03 0.878D-02 0.266D-01
 Coeff:      0.852D-01 0.283D+00 0.595D+00
 Gap=     0.178 Goal=   None    Shift=    0.000
 RMSDP=6.83D-07 MaxDP=2.94D-05 DE=-3.52D-07 OVMax= 4.74D-05

 Cycle  10  Pass 1  IDiag  1:
 RMSU=  4.02D-07    CP:  9.79D-01  8.47D-01  6.10D-01  6.90D-01  6.32D-01
                    CP:  6.52D-01  6.69D-01  6.96D-01  6.83D-01
 E= -785.094128042097     Delta-E=       -0.000000043483 Rises=F Damp=F
 DIIS: error= 1.53D-06 at cycle  10 NSaved=  10.
 NSaved=10 IEnMin=10 EnMin= -785.094128042097     IErMin=10 ErrMin= 1.53D-06
 ErrMax= 1.53D-06  0.00D+00 EMaxC= 1.00D-01 BMatC= 2.87D-09 BMatP= 5.50D-08
 IDIUse=1 WtCom= 1.00D+00 WtEn= 0.00D+00
 Coeff-Com:  0.583D-05-0.667D-04-0.157D-03-0.598D-03 0.232D-03 0.208D-02
 Coeff-Com:  0.147D-01 0.897D-01 0.273D+00 0.621D+00
 Coeff:      0.583D-05-0.667D-04-0.157D-03-0.598D-03 0.232D-03 0.208D-02
 Coeff:      0.147D-01 0.897D-01 0.273D+00 0.621D+00
 Gap=     0.178 Goal=   None    Shift=    0.000
 RMSDP=2.06D-07 MaxDP=8.45D-06 DE=-4.35D-08 OVMax= 2.27D-05

 Cycle  11  Pass 1  IDiag  1:
 RMSU=  1.55D-07    CP:  9.79D-01  8.47D-01  6.10D-01  6.90D-01  6.32D-01
                    CP:  6.52D-01  6.69D-01  7.13D-01  7.34D-01  7.82D-01
 E= -785.094128044222     Delta-E=       -0.000000002125 Rises=F Damp=F
 DIIS: error= 9.58D-07 at cycle  11 NSaved=  11.
 NSaved=11 IEnMin=11 EnMin= -785.094128044222     IErMin=11 ErrMin= 9.58D-07
 ErrMax= 9.58D-07  0.00D+00 EMaxC= 1.00D-01 BMatC= 5.96D-10 BMatP= 2.87D-09
 IDIUse=1 WtCom= 1.00D+00 WtEn= 0.00D+00
 Coeff-Com:  0.326D-05-0.190D-05-0.114D-03-0.449D-03-0.867D-03-0.182D-02
 Coeff-Com: -0.147D-02 0.194D-01 0.933D-01 0.363D+00 0.529D+00
 Coeff:      0.326D-05-0.190D-05-0.114D-03-0.449D-03-0.867D-03-0.182D-02
 Coeff:     -0.147D-02 0.194D-01 0.933D-01 0.363D+00 0.529D+00
 Gap=     0.178 Goal=   None    Shift=    0.000
 RMSDP=9.77D-08 MaxDP=5.38D-06 DE=-2.13D-09 OVMax= 1.27D-05

 Cycle  12  Pass 1  IDiag  1:
 RMSU=  5.40D-08    CP:  9.79D-01  8.47D-01  6.10D-01  6.90D-01  6.32D-01
                    CP:  6.52D-01  6.70D-01  7.12D-01  7.43D-01  8.44D-01
                    CP:  5.15D-01
 E= -785.094128044799     Delta-E=       -0.000000000576 Rises=F Damp=F
 DIIS: error= 2.94D-07 at cycle  12 NSaved=  12.
 NSaved=12 IEnMin=12 EnMin= -785.094128044799     IErMin=12 ErrMin= 2.94D-07
 ErrMax= 2.94D-07  0.00D+00 EMaxC= 1.00D-01 BMatC= 6.40D-11 BMatP= 5.96D-10
 IDIUse=1 WtCom= 1.00D+00 WtEn= 0.00D+00
 Coeff-Com:  0.108D-05 0.683D-05-0.407D-04-0.163D-03-0.479D-03-0.115D-02
 Coeff-Com: -0.235D-02 0.527D-04 0.197D-01 0.120D+00 0.295D+00 0.569D+00
 Coeff:      0.108D-05 0.683D-05-0.407D-04-0.163D-03-0.479D-03-0.115D-02
 Coeff:     -0.235D-02 0.527D-04 0.197D-01 0.120D+00 0.295D+00 0.569D+00
 Gap=     0.178 Goal=   None    Shift=    0.000
 RMSDP=3.32D-08 MaxDP=1.14D-06 DE=-5.76D-10 OVMax= 4.69D-06

 Cycle  13  Pass 1  IDiag  1:
 RMSU=  1.82D-08    CP:  9.79D-01  8.47D-01  6.10D-01  6.90D-01  6.32D-01
                    CP:  6.52D-01  6.69D-01  7.14D-01  7.48D-01  8.48D-01
                    CP:  6.42D-01  6.82D-01
 E= -785.094128044855     Delta-E=       -0.000000000057 Rises=F Damp=F
 DIIS: error= 1.06D-07 at cycle  13 NSaved=  13.
 NSaved=13 IEnMin=13 EnMin= -785.094128044855     IErMin=13 ErrMin= 1.06D-07
 ErrMax= 1.06D-07  0.00D+00 EMaxC= 1.00D-01 BMatC= 9.36D-12 BMatP= 6.40D-11
 IDIUse=1 WtCom= 1.00D+00 WtEn= 0.00D+00
 Coeff-Com:  0.535D-07 0.420D-05-0.111D-04-0.432D-04-0.197D-03-0.493D-03
 Coeff-Com: -0.134D-02-0.302D-02-0.104D-02 0.235D-01 0.111D+00 0.339D+00
 Coeff-Com:  0.533D+00
 Coeff:      0.535D-07 0.420D-05-0.111D-04-0.432D-04-0.197D-03-0.493D-03
 Coeff:     -0.134D-02-0.302D-02-0.104D-02 0.235D-01 0.111D+00 0.339D+00
 Coeff:      0.533D+00
 Gap=     0.178 Goal=   None    Shift=    0.000
 RMSDP=1.03D-08 MaxDP=5.16D-07 DE=-5.66D-11 OVMax= 1.07D-06

 Cycle  14  Pass 1  IDiag  1:
 RMSU=  5.83D-09    CP:  9.79D-01  8.47D-01  6.10D-01  6.90D-01  6.32D-01
                    CP:  6.52D-01  6.70D-01  7.14D-01  7.47D-01  8.53D-01
                    CP:  6.37D-01  7.43D-01  6.29D-01
 E= -785.094128044878     Delta-E=       -0.000000000022 Rises=F Damp=F
 DIIS: error= 2.17D-08 at cycle  14 NSaved=  14.
 NSaved=14 IEnMin=14 EnMin= -785.094128044878     IErMin=14 ErrMin= 2.17D-08
 ErrMax= 2.17D-08  0.00D+00 EMaxC= 1.00D-01 BMatC= 5.33D-13 BMatP= 9.36D-12
 IDIUse=1 WtCom= 1.00D+00 WtEn= 0.00D+00
 Coeff-Com: -0.625D-07 0.107D-05-0.629D-06-0.215D-05-0.395D-04-0.955D-04
 Coeff-Com: -0.329D-03-0.136D-02-0.225D-02-0.157D-02 0.204D-01 0.949D-01
 Coeff-Com:  0.246D+00 0.644D+00
 Coeff:     -0.625D-07 0.107D-05-0.629D-06-0.215D-05-0.395D-04-0.955D-04
 Coeff:     -0.329D-03-0.136D-02-0.225D-02-0.157D-02 0.204D-01 0.949D-01
 Coeff:      0.246D+00 0.644D+00
 Gap=     0.178 Goal=   None    Shift=    0.000
 RMSDP=2.89D-09 MaxDP=1.17D-07 DE=-2.23D-11 OVMax= 4.26D-07

 Error on total polarization charges =  0.00641
 SCF Done:  E(RB3LYP) =  -785.094128045     A.U. after   14 cycles
            NFock= 14  Conv=0.29D-08     -V/T= 2.0065
 KE= 7.800103059567D+02 PE=-4.096089117353D+03 EE= 1.399566626262D+03
 Leave Link  502 at Mon Mar 20 17:40:55 2017, MaxMem=   402653184 cpu:      1070.1
 (Enter /n/sw/g09_D.01/g09/l801.exe)
 DoSCS=F DFT=T ScalE2(SS,OS)=  1.000000  1.000000
 Range of M.O.s used for correlation:     1   309
 NBasis=   309 NAE=    61 NBE=    61 NFC=     0 NFV=     0
 NROrb=    309 NOA=    61 NOB=    61 NVA=   248 NVB=   248
 Leave Link  801 at Mon Mar 20 17:40:55 2017, MaxMem=   402653184 cpu:         0.2
 (Enter /n/sw/g09_D.01/g09/l1101.exe)
 Using compressed storage, NAtomX=    33.
 Will process     34 centers per pass.
 R6Disp: Adding Grimme-D3(BJ) dispersion energy 1st derivatives to the gradient.
 Leave Link 1101 at Mon Mar 20 17:40:55 2017, MaxMem=   402653184 cpu:         5.4
 (Enter /n/sw/g09_D.01/g09/l1102.exe)
 Symmetrizing basis deriv contribution to polar:
 IMax=3 JMax=2 DiffMx= 0.00D+00
 Leave Link 1102 at Mon Mar 20 17:40:56 2017, MaxMem=   402653184 cpu:         0.8
 (Enter /n/sw/g09_D.01/g09/l1110.exe)
 Forming Gx(P) for the SCF density, NAtomX=    33.
 Integral derivatives from FoFJK, PRISM(SPDF).
 Do as many integral derivatives as possible in FoFJK.
 G2DrvN: MDV=     402652816.
 G2DrvN: will do    34 centers at a time, making    1 passes.
 Calling FoFCou, ICntrl=  3107 FMM=F I1Cent=   0 AccDes= 0.00D+00.
 FoFJK:  IHMeth= 1 ICntrl=    3107 DoSepK=F KAlg= 0 I1Cent=   0 FoldK=F
 IRaf=         0 NMat=   1 IRICut=       1 DoRegI=T DoRafI=F ISym2E= 0.
 FoFCou: FMM=F IPFlag=           0 FMFlag=      100000 FMFlg1=           0
         NFxFlg=           0 DoJE=F BraDBF=F KetDBF=F FulRan=T
         wScrn=  0.000000 ICntrl=    3107 IOpCl=  0 I1Cent=           0 NGrid=           0
         NMat0=    1 NMatS0=      1 NMatT0=    0 NMatD0=    1 NMtDS0=    0 NMtDT0=    0
 Symmetry not used in FoFCou.
 NEqPCM:  Using equilibrium solvation (IEInf=0, Eps=   2.2099, EpsInf=   2.0232)
 G2PCM: DoFxE=T DoFxN=T DoGrad=T DoDP/DQ/DG/TGxP=FFFF NFrqRd=   0 IEInf=0 SqF1=F DoCFld=F IF1Alg=4.
 GePol: Maximum number of non-zero 1st derivatives   =     237
 End of G2Drv F.D. properties file   721 does not exist.
 End of G2Drv F.D. properties file   722 does not exist.
 End of G2Drv F.D. properties file   788 does not exist.
 Leave Link 1110 at Mon Mar 20 17:43:40 2017, MaxMem=   402653184 cpu:      1317.9
 (Enter /n/sw/g09_D.01/g09/l1002.exe)
 Minotr:  Closed shell wavefunction.
          IDoAtm=111111111111111111111111111111111
 NEqPCM:  Using equilibrium solvation (IEInf=0, Eps=   2.2099, EpsInf=   2.0232)
          Direct CPHF calculation.
          Differentiating once with respect to nuclear coordinates.
          Requested convergence is 1.0D-08 RMS, and 1.0D-07 maximum.
          Secondary convergence is 1.0D-12 RMS, and 1.0D-12 maximum.
          NewPWx=T KeepS1=F KeepF1=F KeepIn=T MapXYZ=F SortEE=F KeepMc=T.
          MDV=     402652541 using IRadAn=       2.
 Generate precomputed XC quadrature information.
          Solving linear equations simultaneously, MaxMat=       0.
 FoFJK:  IHMeth= 1 ICntrl=       0 DoSepK=F KAlg= 0 I1Cent=   0 FoldK=F
 IRaf= 820000000 NMat= 102 IRICut=     255 DoRegI=T DoRafI=T ISym2E= 2.
 FoFCou: FMM=F IPFlag=           0 FMFlag=      100000 FMFlg1=           0
         NFxFlg=           0 DoJE=F BraDBF=F KetDBF=F FulRan=T
         wScrn=  0.000000 ICntrl=       0 IOpCl=  0 I1Cent=           0 NGrid=           0
         NMat0=  102 NMatS0=    102 NMatT0=    0 NMatD0=  102 NMtDS0=    0 NMtDT0=    0
 Integrals replicated using symmetry in FoFCou.
          There are   102 degrees of freedom in the 1st order CPHF.  IDoFFX=6 NUNeed=     0.
     96 vectors produced by pass  0 Test12= 1.51D-14 1.00D-09 XBig12= 1.70D-01 1.85D-01.
 AX will form    96 AO Fock derivatives at one time.
     96 vectors produced by pass  1 Test12= 1.51D-14 1.00D-09 XBig12= 3.84D-02 5.10D-02.
     96 vectors produced by pass  2 Test12= 1.51D-14 1.00D-09 XBig12= 3.17D-04 3.07D-03.
     96 vectors produced by pass  3 Test12= 1.51D-14 1.00D-09 XBig12= 9.96D-07 1.13D-04.
     96 vectors produced by pass  4 Test12= 1.51D-14 1.00D-09 XBig12= 1.31D-09 3.41D-06.
     78 vectors produced by pass  5 Test12= 1.51D-14 1.00D-09 XBig12= 1.16D-12 1.19D-07.
      3 vectors produced by pass  6 Test12= 1.51D-14 1.00D-09 XBig12= 1.04D-15 2.71D-09.
 InvSVY:  IOpt=1 It=  1 EMax= 1.17D-15
 Solved reduced A of dimension   561 with   102 vectors.
 End of Minotr F.D. properties file   721 does not exist.
 End of Minotr F.D. properties file   722 does not exist.
 End of Minotr F.D. properties file   788 does not exist.
 Leave Link 1002 at Mon Mar 20 17:50:38 2017, MaxMem=   402653184 cpu:      3337.6
 (Enter /n/sw/g09_D.01/g09/l601.exe)
 Copying SCF densities to generalized density rwf, IOpCl= 0 IROHF=0.

 **********************************************************************

            Population analysis using the SCF density.

 **********************************************************************

 Orbital symmetries:
       Occupied  (A) (A) (A) (A) (A) (A) (A) (A) (A) (A) (A) (A)
                 (A) (A) (A) (A) (A) (A) (A) (A) (A) (A) (A) (A)
                 (A) (A) (A) (A) (A) (A) (A) (A) (A) (A) (A) (A)
                 (A) (A) (A) (A) (A) (A) (A) (A) (A) (A) (A) (A)
                 (A) (A) (A) (A) (A) (A) (A) (A) (A) (A) (A) (A)
                 (A)
       Virtual   (A) (A) (A) (A) (A) (A) (A) (A) (A) (A) (A) (A)
                 (A) (A) (A) (A) (A) (A) (A) (A) (A) (A) (A) (A)
                 (A) (A) (A) (A) (A) (A) (A) (A) (A) (A) (A) (A)
                 (A) (A) (A) (A) (A) (A) (A) (A) (A) (A) (A) (A)
                 (A) (A) (A) (A) (A) (A) (A) (A) (A) (A) (A) (A)
                 (A) (A) (A) (A) (A) (A) (A) (A) (A) (A) (A) (A)
                 (A) (A) (A) (A) (A) (A) (A) (A) (A) (A) (A) (A)
                 (A) (A) (A) (A) (A) (A) (A) (A) (A) (A) (A) (A)
                 (A) (A) (A) (A) (A) (A) (A) (A) (A) (A) (A) (A)
                 (A) (A) (A) (A) (A) (A) (A) (A) (A) (A) (A) (A)
                 (A) (A) (A) (A) (A) (A) (A) (A) (A) (A) (A) (A)
                 (A) (A) (A) (A) (A) (A) (A) (A) (A) (A) (A) (A)
                 (A) (A) (A) (A) (A) (A) (A) (A) (A) (A) (A) (A)
                 (A) (A) (A) (A) (A) (A) (A) (A) (A) (A) (A) (A)
                 (A) (A) (A) (A) (A) (A) (A) (A) (A) (A) (A) (A)
                 (A) (A) (A) (A) (A) (A) (A) (A) (A) (A) (A) (A)
                 (A) (A) (A) (A) (A) (A) (A) (A) (A) (A) (A) (A)
                 (A) (A) (A) (A) (A) (A) (A) (A) (A) (A) (A) (A)
                 (A) (A) (A) (A) (A) (A) (A) (A) (A) (A) (A) (A)
                 (A) (A) (A) (A) (A) (A) (A) (A) (A) (A) (A) (A)
                 (A) (A) (A) (A) (A) (A) (A) (A)
 The electronic state is 1-A.
 Alpha  occ. eigenvalues --  -19.18601 -19.17140 -19.12377 -19.11000 -14.37557
 Alpha  occ. eigenvalues --  -10.34023 -10.29903 -10.24679 -10.24533 -10.23086
 Alpha  occ. eigenvalues --  -10.19741 -10.19645 -10.19349 -10.18693 -10.18636
 Alpha  occ. eigenvalues --  -10.18149  -1.11457  -1.08950  -1.02121  -0.99816
 Alpha  occ. eigenvalues --   -0.95054  -0.82056  -0.78083  -0.77511  -0.72823
 Alpha  occ. eigenvalues --   -0.70916  -0.66959  -0.62785  -0.62121  -0.59543
 Alpha  occ. eigenvalues --   -0.56726  -0.55271  -0.53365  -0.50745  -0.50060
 Alpha  occ. eigenvalues --   -0.49317  -0.47206  -0.46619  -0.46350  -0.44775
 Alpha  occ. eigenvalues --   -0.44491  -0.43718  -0.42272  -0.41139  -0.41073
 Alpha  occ. eigenvalues --   -0.39878  -0.39597  -0.38181  -0.37682  -0.37157
 Alpha  occ. eigenvalues --   -0.35769  -0.35571  -0.35411  -0.34626  -0.30563
 Alpha  occ. eigenvalues --   -0.30275  -0.29056  -0.28307  -0.26256  -0.23727
 Alpha  occ. eigenvalues --   -0.21731
 Alpha virt. eigenvalues --   -0.03921  -0.01175   0.03984   0.04245   0.06396
 Alpha virt. eigenvalues --    0.06570   0.06781   0.08118   0.09999   0.10651
 Alpha virt. eigenvalues --    0.10911   0.11720   0.12230   0.12848   0.12990
 Alpha virt. eigenvalues --    0.13566   0.13632   0.14377   0.14883   0.15635
 Alpha virt. eigenvalues --    0.16131   0.16593   0.18798   0.20593   0.21083
 Alpha virt. eigenvalues --    0.22905   0.25367   0.26699   0.27650   0.28303
 Alpha virt. eigenvalues --    0.30499   0.32352   0.33406   0.33705   0.37695
 Alpha virt. eigenvalues --    0.38987   0.41126   0.42015   0.43162   0.43758
 Alpha virt. eigenvalues --    0.44141   0.45203   0.45965   0.46276   0.47203
 Alpha virt. eigenvalues --    0.47493   0.48041   0.48890   0.49666   0.51038
 Alpha virt. eigenvalues --    0.52283   0.52556   0.52990   0.54727   0.56561
 Alpha virt. eigenvalues --    0.58010   0.59370   0.60263   0.61067   0.61905
 Alpha virt. eigenvalues --    0.62174   0.62850   0.63118   0.63759   0.64370
 Alpha virt. eigenvalues --    0.65062   0.65185   0.65519   0.65850   0.66499
 Alpha virt. eigenvalues --    0.66600   0.67430   0.68034   0.68231   0.69534
 Alpha virt. eigenvalues --    0.69818   0.70361   0.71597   0.72120   0.72505
 Alpha virt. eigenvalues --    0.74492   0.75167   0.77689   0.78711   0.80670
 Alpha virt. eigenvalues --    0.81506   0.84321   0.86941   0.89292   0.89931
 Alpha virt. eigenvalues --    0.90979   0.91599   0.92585   0.92680   0.95238
 Alpha virt. eigenvalues --    0.97001   0.98052   0.99457   1.00416   1.02355
 Alpha virt. eigenvalues --    1.04116   1.05132   1.06060   1.07282   1.08615
 Alpha virt. eigenvalues --    1.09643   1.09899   1.10954   1.12832   1.14198
 Alpha virt. eigenvalues --    1.15117   1.16205   1.17846   1.19355   1.20673
 Alpha virt. eigenvalues --    1.20898   1.22468   1.22999   1.25470   1.26445
 Alpha virt. eigenvalues --    1.28638   1.29886   1.32580   1.33904   1.35860
 Alpha virt. eigenvalues --    1.36698   1.37257   1.40721   1.42720   1.42874
 Alpha virt. eigenvalues --    1.44046   1.46557   1.47821   1.49016   1.51289
 Alpha virt. eigenvalues --    1.52814   1.52963   1.55046   1.56189   1.56956
 Alpha virt. eigenvalues --    1.59254   1.59702   1.60179   1.60899   1.61445
 Alpha virt. eigenvalues --    1.61578   1.62460   1.63619   1.64222   1.65589
 Alpha virt. eigenvalues --    1.66027   1.66405   1.67165   1.67541   1.69112
 Alpha virt. eigenvalues --    1.69866   1.70199   1.70416   1.70714   1.72053
 Alpha virt. eigenvalues --    1.72370   1.73764   1.74731   1.75779   1.76336
 Alpha virt. eigenvalues --    1.78397   1.79172   1.80602   1.83043   1.83630
 Alpha virt. eigenvalues --    1.84572   1.87518   1.88214   1.88662   1.91303
 Alpha virt. eigenvalues --    1.92883   1.93530   1.94092   1.95734   1.96219
 Alpha virt. eigenvalues --    1.97728   1.99983   2.01534   2.01695   2.03034
 Alpha virt. eigenvalues --    2.05055   2.08292   2.08860   2.09143   2.10079
 Alpha virt. eigenvalues --    2.12055   2.12624   2.14468   2.16525   2.18401
 Alpha virt. eigenvalues --    2.21564   2.21950   2.23199   2.24079   2.24312
 Alpha virt. eigenvalues --    2.26147   2.28293   2.30943   2.32300   2.35497
 Alpha virt. eigenvalues --    2.35698   2.38854   2.40817   2.41990   2.44267
 Alpha virt. eigenvalues --    2.45225   2.46292   2.47563   2.48217   2.48996
 Alpha virt. eigenvalues --    2.51141   2.54879   2.56233   2.57820   2.61410
 Alpha virt. eigenvalues --    2.62279   2.64118   2.65975   2.66601   2.67376
 Alpha virt. eigenvalues --    2.71604   2.74362   2.76638   2.80067   2.83630
 Alpha virt. eigenvalues --    2.90029   2.90713   2.92076   2.92890   2.96571
 Alpha virt. eigenvalues --    3.02496   3.03734   3.16534   3.18056   3.18471
 Alpha virt. eigenvalues --    3.19091   3.27632   3.39531   3.40341   3.48986
 Alpha virt. eigenvalues --    3.52490   3.55133   3.58045
          Condensed to atoms (all electrons):
               1          2          3          4          5          6
     1  C    4.668098   0.388627   0.592023  -0.006447   0.008908   0.504084
     2  H    0.388627   0.738005  -0.056381  -0.016377   0.010293  -0.041523
     3  C    0.592023  -0.056381   4.701142   0.362641   0.360651  -0.043833
     4  H   -0.006447  -0.016377   0.362641   0.671164  -0.050002   0.012093
     5  H    0.008908   0.010293   0.360651  -0.050002   0.686337  -0.035367
     6  C    0.504084  -0.041523  -0.043833   0.012093  -0.035367   4.776957
     7  H   -0.032671  -0.018572   0.010743  -0.000104  -0.000467   0.389505
     8  C   -0.025715   0.011057  -0.031542  -0.000707   0.014881   0.487017
     9  H   -0.024226  -0.000393   0.011645   0.000106   0.001668  -0.015699
    10  N    0.004215  -0.000071   0.000468  -0.000018   0.000233  -0.038934
    11  H   -0.000028   0.000015  -0.000039  -0.000002   0.000084   0.006770
    12  C    0.000151  -0.000011   0.000052  -0.000001  -0.000007  -0.008971
    13  O    0.000259  -0.000018  -0.000005   0.000000  -0.000002   0.000243
    14  O   -0.000001   0.000000   0.000000   0.000000   0.000000   0.000123
    15  C   -0.017906   0.000502   0.117911  -0.010774  -0.003283  -0.033525
    16  H    0.000544  -0.000262  -0.001571   0.000937  -0.007782   0.001367
    17  C   -0.033047  -0.000482  -0.031291   0.003562  -0.010831  -0.016093
    18  H    0.002058   0.000053   0.001114  -0.000143   0.001086   0.001131
    19  H   -0.002759  -0.000171   0.001819   0.000010  -0.000293  -0.005479
    20  C   -0.009592   0.000821  -0.008461   0.001444   0.000008  -0.000569
    21  O   -0.001246  -0.000135  -0.004866   0.005771   0.000169   0.000079
    22  O    0.005063   0.001084  -0.006046  -0.000292  -0.000029   0.002441
    23  C    0.000049   0.000383  -0.000049  -0.000155   0.000011   0.000108
    24  H   -0.000056  -0.000027  -0.000018  -0.000005   0.000000   0.000078
    25  H   -0.000305   0.000242   0.000516   0.000219   0.000009  -0.000009
    26  H    0.000106   0.000025  -0.000057  -0.000039   0.000000   0.000010
    27  C    0.000000   0.000000   0.000000   0.000000   0.000000  -0.000012
    28  H    0.000001   0.000000   0.000000   0.000000   0.000000   0.000014
    29  H    0.000000   0.000000   0.000000   0.000000   0.000000  -0.000021
    30  C    0.000000   0.000000   0.000000   0.000000   0.000000   0.000000
    31  H    0.000000   0.000000   0.000000   0.000000   0.000000   0.000000
    32  H    0.000000   0.000000   0.000000   0.000000   0.000000   0.000000
    33  H    0.000000   0.000000   0.000000   0.000000   0.000000   0.000000
               7          8          9         10         11         12
     1  C   -0.032671  -0.025715  -0.024226   0.004215  -0.000028   0.000151
     2  H   -0.018572   0.011057  -0.000393  -0.000071   0.000015  -0.000011
     3  C    0.010743  -0.031542   0.011645   0.000468  -0.000039   0.000052
     4  H   -0.000104  -0.000707   0.000106  -0.000018  -0.000002  -0.000001
     5  H   -0.000467   0.014881   0.001668   0.000233   0.000084  -0.000007
     6  C    0.389505   0.487017  -0.015699  -0.038934   0.006770  -0.008971
     7  H    0.696020  -0.058900   0.007851  -0.009802  -0.000144   0.001272
     8  C   -0.058900   4.826327   0.366689   0.385406  -0.019205  -0.062776
     9  H    0.007851   0.366689   0.683384  -0.026556  -0.013294   0.005906
    10  N   -0.009802   0.385406  -0.026556   6.140525   0.359083   0.417841
    11  H   -0.000144  -0.019205  -0.013294   0.359083   0.574827  -0.024415
    12  C    0.001272  -0.062776   0.005906   0.417841  -0.024415   4.316818
    13  O    0.021837  -0.005670   0.000023  -0.057937   0.003478   0.689126
    14  O    0.000227   0.001914  -0.000157  -0.060769   0.009869   0.396679
    15  C   -0.000308  -0.019448  -0.011798   0.001734   0.000083   0.000143
    16  H    0.000029  -0.000309   0.001298  -0.000079  -0.000012   0.000001
    17  C    0.000918   0.149196  -0.006701  -0.025372   0.000389  -0.002471
    18  H   -0.000220  -0.005136  -0.010299   0.004772   0.001445  -0.000453
    19  H    0.001747  -0.006875   0.003927  -0.007622  -0.000408   0.004422
    20  C    0.000017  -0.000203  -0.000313   0.000002   0.000004  -0.000021
    21  O    0.000002   0.000001   0.000002   0.000000   0.000000   0.000000
    22  O    0.000653  -0.001314  -0.000005   0.000007   0.000000  -0.000058
    23  C   -0.000036   0.000044   0.000001   0.000000   0.000000   0.000001
    24  H    0.000011   0.000016   0.000000  -0.000001   0.000000   0.000003
    25  H    0.000001  -0.000017  -0.000001   0.000000   0.000000  -0.000001
    26  H    0.000004  -0.000005   0.000000   0.000000   0.000000   0.000000
    27  C   -0.000002  -0.000169   0.000010   0.004451  -0.000606  -0.052306
    28  H    0.000038  -0.000052  -0.000001   0.000116   0.000145  -0.002022
    29  H   -0.000028   0.000069   0.000002   0.000273   0.000063  -0.001511
    30  C   -0.000001   0.000002   0.000000   0.000073  -0.000190   0.004370
    31  H    0.000000   0.000000   0.000000   0.000004   0.000006  -0.000082
    32  H    0.000000  -0.000001   0.000000  -0.000061   0.000088   0.000194
    33  H    0.000000   0.000001   0.000000  -0.000043   0.000065   0.000198
              13         14         15         16         17         18
     1  C    0.000259  -0.000001  -0.017906   0.000544  -0.033047   0.002058
     2  H   -0.000018   0.000000   0.000502  -0.000262  -0.000482   0.000053
     3  C   -0.000005   0.000000   0.117911  -0.001571  -0.031291   0.001114
     4  H    0.000000   0.000000  -0.010774   0.000937   0.003562  -0.000143
     5  H   -0.000002   0.000000  -0.003283  -0.007782  -0.010831   0.001086
     6  C    0.000243   0.000123  -0.033525   0.001367  -0.016093   0.001131
     7  H    0.021837   0.000227  -0.000308   0.000029   0.000918  -0.000220
     8  C   -0.005670   0.001914  -0.019448  -0.000309   0.149196  -0.005136
     9  H    0.000023  -0.000157  -0.011798   0.001298  -0.006701  -0.010299
    10  N   -0.057937  -0.060769   0.001734  -0.000079  -0.025372   0.004772
    11  H    0.003478   0.009869   0.000083  -0.000012   0.000389   0.001445
    12  C    0.689126   0.396679   0.000143   0.000001  -0.002471  -0.000453
    13  O    7.678233  -0.054702  -0.000035  -0.000001  -0.002406  -0.000116
    14  O   -0.054702   7.780243  -0.000001   0.000000  -0.000024  -0.000005
    15  C   -0.000035  -0.000001   4.956870   0.362376   0.493465   0.004413
    16  H   -0.000001   0.000000   0.362376   0.704773  -0.030889  -0.016704
    17  C   -0.002406  -0.000024   0.493465  -0.030889   4.768523   0.342029
    18  H   -0.000116  -0.000005   0.004413  -0.016704   0.342029   0.698719
    19  H    0.008047  -0.000200  -0.013716   0.008428   0.376368  -0.047136
    20  C   -0.000001   0.000000   0.399618  -0.028931  -0.044592   0.006784
    21  O    0.000000   0.000000  -0.054350   0.005144   0.004310  -0.000145
    22  O   -0.000006   0.000000  -0.076629   0.004005   0.005597   0.000176
    23  C   -0.000001   0.000000   0.010288  -0.000267  -0.000754   0.000014
    24  H    0.000010   0.000000  -0.000393   0.000015  -0.000116  -0.000003
    25  H    0.000000   0.000000   0.000373  -0.000070   0.000106   0.000006
    26  H    0.000000   0.000000   0.000827   0.000007  -0.000078   0.000008
    27  C    0.003739   0.298243   0.000000   0.000000   0.000009  -0.000004
    28  H    0.006721  -0.029487   0.000000   0.000000   0.000003   0.000000
    29  H    0.006401  -0.029381   0.000001   0.000000  -0.000019  -0.000005
    30  C    0.001147  -0.034148   0.000000   0.000000   0.000000   0.000000
    31  H    0.000041   0.003088   0.000000   0.000000   0.000000   0.000000
    32  H   -0.000015   0.003663   0.000000   0.000000   0.000000   0.000000
    33  H   -0.000018   0.003674   0.000000   0.000000   0.000000   0.000000
              19         20         21         22         23         24
     1  C   -0.002759  -0.009592  -0.001246   0.005063   0.000049  -0.000056
     2  H   -0.000171   0.000821  -0.000135   0.001084   0.000383  -0.000027
     3  C    0.001819  -0.008461  -0.004866  -0.006046  -0.000049  -0.000018
     4  H    0.000010   0.001444   0.005771  -0.000292  -0.000155  -0.000005
     5  H   -0.000293   0.000008   0.000169  -0.000029   0.000011   0.000000
     6  C   -0.005479  -0.000569   0.000079   0.002441   0.000108   0.000078
     7  H    0.001747   0.000017   0.000002   0.000653  -0.000036   0.000011
     8  C   -0.006875  -0.000203   0.000001  -0.001314   0.000044   0.000016
     9  H    0.003927  -0.000313   0.000002  -0.000005   0.000001   0.000000
    10  N   -0.007622   0.000002   0.000000   0.000007   0.000000  -0.000001
    11  H   -0.000408   0.000004   0.000000   0.000000   0.000000   0.000000
    12  C    0.004422  -0.000021   0.000000  -0.000058   0.000001   0.000003
    13  O    0.008047  -0.000001   0.000000  -0.000006  -0.000001   0.000010
    14  O   -0.000200   0.000000   0.000000   0.000000   0.000000   0.000000
    15  C   -0.013716   0.399618  -0.054350  -0.076629   0.010288  -0.000393
    16  H    0.008428  -0.028931   0.005144   0.004005  -0.000267   0.000015
    17  C    0.376368  -0.044592   0.004310   0.005597  -0.000754  -0.000116
    18  H   -0.047136   0.006784  -0.000145   0.000176   0.000014  -0.000003
    19  H    0.647669  -0.020362   0.000309   0.019150  -0.000836  -0.000215
    20  C   -0.020362   4.424965   0.711562   0.375434  -0.051057   0.004178
    21  O    0.000309   0.711562   7.680022  -0.066159   0.001882   0.001141
    22  O    0.019150   0.375434  -0.066159   7.766163   0.316606  -0.019021
    23  C   -0.000836  -0.051057   0.001882   0.316606   4.411402   0.393646
    24  H   -0.000215   0.004178   0.001141  -0.019021   0.393646   0.644956
    25  H    0.000199  -0.000889   0.008025  -0.030748   0.391361  -0.029283
    26  H    0.000042  -0.002582   0.008555  -0.028798   0.396003  -0.029156
    27  C   -0.000037   0.000000   0.000000   0.000000   0.000000   0.000000
    28  H   -0.000020   0.000000   0.000000   0.000000   0.000000   0.000000
    29  H    0.000152   0.000000   0.000000   0.000000   0.000000   0.000000
    30  C   -0.000001   0.000000   0.000000   0.000000   0.000000   0.000000
    31  H    0.000000   0.000000   0.000000   0.000000   0.000000   0.000000
    32  H   -0.000001   0.000000   0.000000   0.000000   0.000000   0.000000
    33  H    0.000000   0.000000   0.000000   0.000000   0.000000   0.000000
              25         26         27         28         29         30
     1  C   -0.000305   0.000106   0.000000   0.000001   0.000000   0.000000
     2  H    0.000242   0.000025   0.000000   0.000000   0.000000   0.000000
     3  C    0.000516  -0.000057   0.000000   0.000000   0.000000   0.000000
     4  H    0.000219  -0.000039   0.000000   0.000000   0.000000   0.000000
     5  H    0.000009   0.000000   0.000000   0.000000   0.000000   0.000000
     6  C   -0.000009   0.000010  -0.000012   0.000014  -0.000021   0.000000
[...]
 4,-0.00002674,-0.00001023,0.00000043,-0.00004693,-0.00003251,0.0000051
 1,0.00002717,0.00001837,0.00000033,-0.00000546,-0.00000208,-0.00000275
 ,-0.00000222,-0.00000226,-0.00000208,-0.00000394,-0.00000209,-0.049903
 19,0.00013912,0.02460232,0.05642242,-0.00001285,0.00001342,-0.00002375
 ,0.00002262,0.00000641,0.00001100,0.00006639,-0.00000514,0.00003355,0.
 00000579,-0.00001933,0.00001218,-0.00000473,0.00000599,-0.00000236,0.0
 0020563,0.00002074,0.00004813,-0.00003030,-0.00000241,-0.00003548,-0.0
 0082896,-0.00005375,0.00011110,0.00007648,-0.00000394,-0.00001411,0.00
 126130,-0.00142024,0.00060691,-0.00004063,0.00042595,-0.00009073,-0.00
 554589,0.00057849,-0.00422839,0.00120659,0.00075645,0.00133464,0.01650
 180,-0.01608429,-0.03067107,-0.00000216,0.00008219,-0.00003785,0.00001
 438,0.00000328,0.00000386,0.00007104,0.00003781,0.00000791,-0.00001624
 ,-0.00001450,0.00002897,-0.00001790,-0.00002071,0.00002613,-0.00010627
 ,-0.00013323,-0.00004258,0.00009639,0.00003978,0.00000818,0.00002238,0
 .00006122,0.00002351,-0.00002533,-0.00003575,-0.00001762,-0.00000193,0
 .00000068,0.00000412,0.00000390,0.00000310,0.00000237,0.00000911,0.000
 00511,-0.00000110,-0.00081709,-0.05065283,-0.01768720,-0.00863381,0.06
 049687,-0.00001988,-0.00000960,0.00001829,0.00001148,0.00000252,0.0000
 0389,0.00002131,0.00000451,0.00000019,0.00000082,-0.00000346,0.0000047
 1,-0.00000103,0.00000403,0.00000013,0.00004060,-0.00003818,-0.00002155
 ,0.00000627,0.00002810,-0.00001253,-0.00011492,0.00001162,-0.00002225,
 0.00004414,-0.00000350,-0.00000144,0.00067062,0.00012961,-0.00011606,0
 .00001286,0.00020939,-0.00002688,-0.00427354,-0.00127525,-0.00132638,-
 0.00036075,0.00190758,0.00130276,0.00507110,-0.00685738,0.00150142,0.0
 0000937,0.00001275,-0.00000670,0.00000841,0.00000328,0.00000007,0.0000
 1591,-0.00001370,0.00003247,-0.00000893,0.00000721,0.00001152,-0.00002
 396,-0.00001059,0.00000848,-0.00003209,-0.00005814,-0.00003268,0.00003
 331,0.00002008,0.00001215,0.00000681,0.00003709,0.00003063,-0.00000919
 ,-0.00002811,-0.00002210,-0.00000122,0.00000442,0.00000032,0.00000452,
 0.00000112,0.00000285,0.00000175,0.00000332,0.00000194,0.02945527,-0.0
 2457297,-0.30806368,-0.02953701,0.03178668,0.32831639,0.00003974,0.000
 01559,-0.00002372,-0.00000693,-0.00000197,-0.00000543,-0.00004320,0.00
 000240,0.00000082,-0.00000078,0.00000843,-0.00000932,0.00000122,-0.000
 00469,0.00000259,-0.00009660,-0.00001568,-0.00001457,-0.00003141,-0.00
 002615,0.00000038,0.00032246,-0.00011758,0.00028346,-0.00004278,0.0000
 1383,-0.00000247,-0.00143123,0.00044279,0.00037542,0.00015955,-0.00009
 846,-0.00004314,0.00460560,0.00229191,0.00093760,-0.00094337,-0.000655
 50,-0.00061082,0.00505428,0.02472328,-0.00893241,0.00000384,-0.0000402
 6,0.00002703,-0.00000839,-0.00000324,-0.00000179,-0.00008567,0.0000022
 2,-0.00000479,0.00000977,0.00000370,-0.00001421,0.00001065,0.00001818,
 -0.00002319,0.00003648,0.00005745,0.00002173,-0.00003691,-0.00001690,-
 0.00000694,-0.00000425,-0.00002608,-0.00001411,0.00000772,0.00001367,0
 .00000969,0.00000031,-0.00000219,-0.00000101,-0.00000185,-0.00000060,-
 0.00000144,-0.00000179,-0.00000232,-0.00000055,-0.12050679,-0.11048708
 ,0.05448628,-0.00073964,-0.00335018,0.00037984,0.13026832,-0.00002026,
 -0.00001002,-0.00003171,0.00002051,0.00000304,0.00001319,0.00008454,-0
 .00000020,0.00003372,0.00000652,-0.00002615,0.00002195,-0.00000556,0.0
 0001269,-0.00000366,0.00015751,0.00004151,0.00000672,-0.00004517,0.000
 00550,-0.00001875,-0.00070941,0.00014102,-0.00035786,0.00010836,-0.000
 02094,-0.00000356,0.00203786,-0.00088154,0.00029567,-0.00028562,0.0002
 0348,0.00027706,-0.00885286,-0.00175140,-0.00449172,0.00134255,0.00255
 622,0.00147555,0.00315641,-0.03501741,0.00803505,0.00001321,0.00011776
 ,-0.00004671,0.00001210,0.00000540,0.00000647,0.00010170,0.00000076,0.
 00001781,-0.00001610,-0.00002378,0.00002878,-0.00000026,-0.00002617,0.
 00004708,-0.00008992,-0.00019906,-0.00007797,0.00008807,0.00005692,0.0
 0001650,-0.00000261,0.00010264,0.00004001,-0.00001460,-0.00004765,-0.0
 0002116,-0.00000095,0.00000386,0.00001029,0.00000109,0.00000743,0.0000
 0205,0.00001134,0.00000661,0.00000020,-0.10372187,-0.19759331,0.073933
 49,-0.00004242,0.00418345,-0.00065196,0.10851400,0.22669893,-0.0000029
 4,-0.00002613,-0.00000350,0.00000026,0.00000228,0.00000031,0.00000913,
 0.00000478,0.00000125,0.00000231,-0.00000063,-0.00000129,-0.00000106,-
 0.00000021,-0.00000117,0.00001059,0.00002057,0.00003591,-0.00000554,0.
 00001247,-0.00004005,-0.00004327,0.00004583,-0.00005239,0.00001057,-0.
 00000366,-0.00000409,0.00000323,-0.00023278,-0.00040888,-0.00000156,-0
 .00006082,-0.00002232,0.00080140,0.00172121,0.00197059,0.00033343,-0.0
 0146683,-0.00031696,-0.00439497,-0.00810741,0.00468954,0.00000424,0.00
 000147,-0.00001799,0.00000498,0.00000012,-0.00000082,0.00000747,0.0000
 0917,0.00001012,0.,-0.00001499,-0.00000146,-0.00001399,0.00000464,0.00
 002810,-0.00003931,0.00002769,0.00002449,0.00002992,-0.00000838,-0.000
 00868,0.00002430,-0.00002760,-0.00002077,-0.00001507,0.00000886,0.0000
 0704,-0.00000143,-0.00000430,-0.00000508,0.00000226,-0.00000341,-0.000
 00072,0.00000100,-0.00000064,-0.00000198,0.05283386,0.07782522,-0.0896
 8486,0.01605293,0.02325479,-0.01113576,-0.05468900,-0.07916220,0.08783
 219,-0.00000418,-0.00001011,-0.00000456,-0.00000542,-0.00000023,-0.000
 00157,-0.00000451,0.00000222,-0.00000248,-0.00000024,-0.00000018,-0.00
 000265,0.00000170,-0.00000206,-0.00000314,-0.00000905,0.00000158,0.000
 02566,-0.00000608,0.00000717,-0.00001534,0.00006569,0.00020103,0.00005
 018,-0.00006352,0.00000269,-0.00001294,-0.00094337,-0.00008881,-0.0004
 7277,0.00000708,-0.00003471,-0.00005085,0.00034430,0.00303436,0.001959
 97,0.00007953,-0.00069054,-0.00076080,-0.03002610,0.00772459,-0.011001
 42,-0.00000452,-0.00001200,0.00000162,-0.00000040,-0.00000042,-0.00000
 103,0.00000196,0.00000320,-0.00001003,0.00000321,0.00000031,-0.0000046
 7,-0.00000553,-0.00000039,0.00000760,0.00000611,0.00003040,0.00001534,
 -0.00000682,-0.00000916,-0.00000395,0.00000411,-0.00001809,-0.00001156
 ,-0.00000020,0.00000801,0.00000476,-0.00000002,-0.00000221,-0.00000089
 ,-0.00000057,-0.00000097,-0.00000040,-0.00000064,-0.00000124,-0.000000
 95,-0.18056396,-0.02357654,-0.05603134,0.00394673,-0.00063671,0.001539
 10,-0.01395858,-0.00147865,-0.00896591,0.51167479,-0.00001191,0.000006
 82,-0.00001555,0.00002606,0.00000607,0.00001242,0.00007762,-0.00000842
 ,0.00003381,0.00000700,-0.00001801,0.00001816,-0.00000731,0.00001347,0
 .00000055,0.00013984,0.00004008,-0.00000432,-0.00002946,0.00000929,-0.
 00000718,-0.00080736,-0.00045727,-0.00035085,0.00023504,-0.00004601,0.
 00001434,0.00312319,-0.00071296,0.00112924,0.00005686,0.00024387,0.000
 05083,-0.00189326,-0.00702139,-0.00457724,-0.00011207,0.00302089,0.000
 99831,0.04290627,-0.00440837,0.01708070,0.00000377,0.00009722,-0.00004
 089,0.00001554,0.00000502,0.00000555,0.00007791,0.00002244,0.00002478,
 -0.00001783,-0.00001259,0.00003243,-0.00001406,-0.00002325,0.00002065,
 -0.00009799,-0.00018005,-0.00007178,0.00009280,0.00005263,0.00001671,0
 .00000632,0.00009228,0.00004269,-0.00001734,-0.00004797,-0.00002564,-0
 .00000089,0.00000474,0.00000801,0.00000306,0.00000608,0.00000314,0.000
 00959,0.00000677,0.00000087,-0.03539579,-0.07918579,-0.01426584,-0.003
 20566,0.00013020,-0.00037097,-0.02175194,-0.00009195,-0.01287148,-0.00
 987756,0.57574596,-0.00001059,0.00000163,-0.00001336,0.00000972,0.0000
 0178,0.00000501,0.00003560,-0.00000350,0.00001336,0.00000259,-0.000008
 20,0.00000679,-0.00000338,0.00000304,0.00000207,0.00008343,0.00001724,
 0.00001152,-0.00001456,0.00000129,-0.00001443,-0.00041589,-0.00012719,
 -0.00009910,0.00008440,-0.00001587,0.00000447,0.00108798,-0.00041672,0
 .00040260,0.00000662,0.00006647,0.00006990,-0.00081514,-0.00205822,-0.
 00171442,-0.00060796,0.00083144,0.00112588,0.00651099,0.00053983,0.004
 95370,-0.00000195,0.00003162,-0.00003003,0.00001091,0.00000101,0.00000
 387,0.00004696,0.00003588,0.00002259,-0.00000332,-0.00001825,0.0000104
 1,-0.00001181,-0.00000203,0.00000425,-0.00005391,-0.00004572,-0.000008
 85,0.00004627,0.00001351,-0.00000088,0.00001494,0.00001510,0.00000597,
 -0.00001235,-0.00001470,-0.00000706,-0.00000091,0.00000052,-0.00000119
 ,0.00000263,0.00000014,0.00000088,0.00000282,0.00000264,0.00000007,-0.
 06183979,-0.00873199,-0.11618021,-0.02977985,-0.00346402,-0.01192035,0
 .01131097,0.00068697,0.00601918,-0.03233858,-0.00275121,0.55525329,0.0
 0001175,0.00001289,0.00001246,-0.00001404,-0.00000409,-0.00000808,-0.0
 0004672,0.00000184,-0.00002289,-0.00000500,0.00001204,-0.00000949,0.00
 000346,-0.00000683,0.00000041,-0.00009309,-0.00003469,-0.00002010,0.00
 002491,-0.00000503,0.00002773,0.00048686,0.00012847,0.00016264,-0.0000
 9660,0.00001614,-0.00000451,-0.00125691,0.00046256,-0.00034655,-0.0000
 1461,-0.00010763,-0.00001542,0.00196885,0.00154802,0.00150820,-0.00039
 004,-0.00070611,-0.00048327,-0.00821370,0.00004539,-0.00435636,-0.0000
 0544,-0.00005849,0.00002687,-0.00001196,-0.00000302,-0.00000268,-0.000
 04878,-0.00002482,-0.00001428,0.00001047,0.00000749,-0.00002014,0.0000
 2046,0.00001587,-0.00001558,0.00008241,0.00011481,0.00004525,-0.000074
 53,-0.00003530,-0.00001034,-0.00001520,-0.00006010,-0.00002938,0.00001
 899,0.00003815,0.00002079,0.00000182,-0.00000171,-0.00000431,-0.000003
 42,-0.00000372,-0.00000268,-0.00000749,-0.00000479,0.00000040,-0.01168
 089,0.02350510,0.00736535,0.00087573,-0.00005023,-0.00041210,0.0005153
 8,-0.00053846,0.00068365,-0.13240317,0.12207964,0.01881932,0.14358420,
 -0.00000288,-0.00000855,-0.00000560,0.00000330,0.00000184,0.00000226,0
 .00001034,-0.00000014,0.00000818,0.00000177,-0.00000360,0.00000221,-0.
 00000060,0.00000136,-0.00000016,0.00002458,0.00001401,0.00000959,-0.00
 000788,-0.00000139,-0.00001122,-0.00013470,0.00003746,0.00000121,-0.00
 000243,0.00000201,-0.00000167,-0.00004380,-0.00007070,-0.00004101,-0.0
 0003464,0.00000207,-0.00000867,-0.00069145,0.00077941,-0.00029120,0.00
 021108,-0.00000914,0.00017367,-0.00103233,0.00134430,-0.00029496,0.000
 00086,0.00001819,-0.00000588,0.00000295,0.00000058,0.00000019,0.000012
 07,0.00000817,-0.00000048,-0.00000389,-0.00000064,0.00000729,-0.000006
 13,-0.00000368,0.00000278,-0.00003280,-0.00003499,-0.00001468,0.000028
 79,0.00001151,0.00000419,0.00000915,0.00001890,0.00001151,-0.00000905,
 -0.00001362,-0.00000858,-0.00000091,0.00000057,0.00000051,0.00000191,0
 .00000052,0.00000124,0.00000217,0.00000169,-0.00000033,-0.00366935,0.0
 0214984,0.00072577,0.00032264,0.00030039,0.00031189,0.00048679,0.00036
 756,0.00029221,0.12544155,-0.22274026,-0.02999736,-0.13595663,0.238461
 01,0.00000176,-0.00000030,0.00000632,-0.00000551,-0.00000155,-0.000002
 23,-0.00001614,0.00000101,-0.00000735,-0.00000137,0.00000386,-0.000002
 79,0.00000140,-0.00000167,-0.00000064,-0.00003574,-0.00000828,-0.00000
 675,0.00001011,0.00000064,0.00000833,0.00017793,0.00009006,0.00003814,
 -0.00004368,0.00000944,-0.00000504,-0.00057179,0.00020377,-0.00022360,
 -0.00002025,-0.00004367,-0.00002830,0.00025672,0.00077297,0.00121926,0
 .00000002,-0.00025862,-0.00027860,-0.00475347,0.00018281,-0.00115598,0
 .00000200,-0.00001493,0.00001159,-0.00000401,-0.00000124,-0.00000109,-
 0.00001694,-0.00001275,-0.00001014,0.00000045,0.00000569,-0.00000420,0
 .00000419,0.00000251,-0.00000314,0.00002029,0.00002495,0.00000915,-0.0
 0001796,-0.00000688,-0.00000240,-0.00000428,-0.00001139,-0.00000662,0.
 00000422,0.00000837,0.00000598,0.00000044,-0.00000087,-0.00000002,-0.0
 0000123,-0.00000020,-0.00000078,-0.00000096,-0.00000129,-0.00000040,-0
 .00589495,0.01318080,0.00101389,0.00068830,0.00012447,0.00015600,0.000
 25863,-0.00014586,0.00044209,0.02042321,-0.03152614,-0.04943901,-0.020
 24555,0.03303346,0.04993359,0.00000466,0.00000327,0.00000511,0.0000018
 3,0.00000094,0.00000019,0.00000021,-0.00000089,0.00000335,-0.00000015,
 -0.00000068,0.00000151,0.00000008,0.00000101,-0.00000021,0.00000513,-0
 .00001176,-0.00001095,0.00000373,0.00000073,0.00000787,-0.00001760,-0.
 00001110,-0.00000674,0.00000721,0.00000189,-0.00000134,0.00011016,0.00
 005047,0.00008393,-0.00000932,0.00004199,-0.00000935,-0.00053400,-0.00
 079546,-0.00052460,-0.00031548,0.00058161,0.00036729,0.00293127,-0.000
 92638,0.00139192,-0.00000505,0.00000417,0.00000263,0.00000090,-0.00000
 012,0.00000001,0.00000704,-0.00000339,-0.00000139,-0.00000418,0.000008
 16,0.00000565,0.00000024,-0.00000123,-0.00001023,-0.00000482,-0.000010
 62,-0.00000730,0.00000557,0.00000419,0.00000324,0.00000142,0.00000732,
 0.00000877,-0.00000116,-0.00000569,-0.00000526,-0.00000002,0.00000151,
 -0.00000011,0.00000106,0.00000009,0.00000083,-0.00000030,0.00000072,0.
 00000055,0.00379816,-0.00424636,-0.03280460,-0.00508514,-0.00011331,-0
 .00257685,0.00140867,0.00014308,0.00061611,-0.05203409,0.00471665,0.04
 085821,-0.00275050,0.00080878,0.01742600,0.05515439,0.00000565,0.00000
 387,0.00000625,-0.00000496,-0.00000132,-0.00000360,-0.00001717,0.00000
 166,-0.00000946,-0.00000211,0.00000469,-0.00000364,0.00000130,-0.00000
 242,0.00000032,-0.00004037,-0.00001829,-0.00000766,0.00000925,-0.00000
 045,0.00000898,0.00018926,0.00000335,0.00001986,-0.00001716,0.00000300
 ,0.00000270,-0.00028462,0.00022183,-0.00003601,0.00003802,-0.00004086,
 0.00001768,0.00074522,-0.00014750,0.00027134,-0.00024615,-0.00012177,-
 0.00010696,-0.00088843,0.00071327,0.00071037,-0.00000540,-0.00002842,0
 .00000976,-0.00000340,-0.00000045,-0.00000139,-0.00001785,-0.00000754,
 0.00000194,0.00000602,0.00000544,-0.00000948,0.00000475,0.00000547,-0.
 00000984,0.00003482,0.00005279,0.00001898,-0.00003174,-0.00001648,-0.0
 0000338,-0.00000523,-0.00002761,-0.00001044,0.00000830,0.00001459,0.00
 000572,0.00000067,-0.00000016,-0.00000259,-0.00000087,-0.00000201,-0.0
 0000062,-0.00000408,-0.00000184,0.00000062,0.00186732,-0.00242711,-0.0
 0497695,-0.00101977,0.00111468,-0.00025203,0.00044495,-0.00004151,-0.0
 0042992,0.00336956,-0.05017251,-0.03401128,0.00218479,-0.00268192,-0.0
 2476825,-0.00341437,0.04949065,0.00000678,0.00000381,0.00001054,0.0000
 0027,0.00000039,-0.00000136,-0.00001135,-0.00000046,-0.00000348,-0.000
 00154,0.00000305,-0.00000123,0.00000123,0.00000041,-0.00000022,-0.0000
 2142,-0.00002029,-0.00001148,0.00001250,0.00000178,0.00000989,0.000112
 95,0.00001508,0.00002215,-0.00001495,0.00000699,-0.00000392,-0.0001888
 5,0.00020065,0.00001519,-0.00003295,0.00000485,-0.00004437,-0.00000453
 ,-0.00046389,-0.00008843,-0.00007094,0.00043012,0.00022702,0.00068983,
 0.00023502,0.00142720,-0.00000567,-0.00001049,0.00001322,-0.00000400,-
 0.00000073,-0.00000073,-0.00000951,-0.00001339,-0.00001072,-0.00000131
 ,0.00001044,0.00000162,0.00000485,0.00000037,-0.00000931,0.00002723,0.
 00000532,-0.00000612,-0.00002105,-0.00000050,0.00000521,-0.00000868,0.
 00000566,0.00001076,0.00000574,-0.00000182,-0.00000518,0.00000008,0.00
 000266,-0.00000013,0.00000076,-0.00000005,0.00000046,-0.00000178,-0.00
 000010,0.00000170,0.00307822,-0.00258212,-0.01604906,-0.00309030,-0.00
 057032,0.00032642,-0.00022262,-0.00006346,0.00106632,0.03712629,-0.034
 06785,-0.30321602,0.00021702,0.00009811,-0.00234900,-0.03871464,0.0388
 6722,0.32861422,-0.00000193,0.00001021,-0.00000176,0.00000118,-0.00000
 159,0.00000174,0.00000131,-0.00000187,-0.00000136,0.00000006,-0.000000
 81,0.00000181,-0.00000036,0.00000098,0.00000142,0.00001200,0.00000364,
 -0.00001313,-0.00000192,-0.00000659,0.00001353,-0.00003927,-0.00000657
 ,0.00000169,0.00000082,0.00000056,0.00000191,0.00009920,0.00010029,0.0
 0004938,-0.00006768,-0.00000642,0.00003901,-0.00049571,-0.00063796,-0.
 00077986,-0.00004182,0.00078075,0.00021777,0.00331758,-0.00021031,0.00
 067700,0.00000798,0.00001514,0.00000144,-0.00000238,0.00000048,0.00000
 115,-0.00000085,-0.00000913,-0.00000368,-0.00000138,-0.00000069,0.0000
 0247,0.00000820,-0.00000192,0.00000172,0.00000932,-0.00003698,-0.00001
 942,-0.00000514,0.00001042,0.00000459,-0.00001348,0.00002472,0.0000103
 0,0.00000531,-0.00000672,-0.00000187,0.00000048,0.00000173,0.00000379,
 -0.00000142,0.00000254,-0.00000018,0.00000164,0.00000073,0.00000058,-0
 .01609914,-0.02538887,0.01199682,0.00129093,0.00067071,0.00003800,-0.0
 0450383,0.00002583,-0.00325755,-0.10609423,-0.10033672,0.04697565,0.00
 952679,0.01426072,-0.00764184,-0.00267991,-0.00290622,0.00114235,0.115
 76765,0.00000397,0.00001073,0.00000162,-0.00000521,-0.00000343,-0.0000
 0201,-0.00001804,0.00000022,-0.00000958,-0.00000199,0.00000482,-0.0000
 0347,0.00000108,-0.00000226,0.00000135,-0.00003339,-0.00000939,-0.0000
 1082,0.00000593,-0.00000786,0.00001401,0.00016951,-0.00000084,0.000053
 70,-0.00002461,0.00000472,0.00000240,-0.00033473,0.00026224,-0.0000423
 5,-0.00000205,-0.00004562,0.00000662,0.00070401,-0.00011706,0.00024728
 ,-0.00011114,0.00002353,-0.00005637,-0.00039306,0.00165437,-0.00044378
 ,0.00000522,-0.00001545,0.00001128,-0.00000564,-0.00000082,0.00000007,
 -0.00002470,-0.00001345,-0.00000552,0.00000376,0.00000212,-0.00000782,
 0.00001075,0.00000420,-0.00000450,0.00004283,0.00001863,0.00000450,-0.
 00003633,-0.00000628,-0.00000190,-0.00001742,-0.00000484,-0.00000549,0
 .00001235,0.00000919,0.00000779,0.00000095,0.,0.00000194,-0.00000290,0
 .00000122,-0.00000147,-0.00000093,-0.00000151,0.00000039,-0.00035646,-
 0.00476103,0.00149409,-0.00001041,0.00017991,-0.00033937,-0.00043838,0
 .00121631,-0.00080991,-0.10338608,-0.21437702,0.07941617,-0.01257158,-
 0.01795278,0.00915905,0.00316478,0.00410489,-0.00209646,0.11364990,0.2
 2982253,0.00000210,0.00000443,0.00000165,-0.00000223,-0.00000062,-0.00
 000128,-0.00000634,0.00000047,-0.00000208,-0.00000079,0.00000143,-0.00
 000108,0.00000045,-0.00000092,-0.00000009,-0.00001809,-0.00000647,-0.0
 0000724,0.00000199,-0.00000186,0.00000869,0.00006509,-0.00002280,0.000
 00830,-0.00000166,0.00000025,0.00000164,-0.00005075,0.00008379,0.00003
 475,0.00003706,0.00000922,0.00000617,0.00018700,-0.00037471,-0.0001238
 6,-0.00019192,0.00021946,-0.00016907,0.00128871,0.00010162,0.00021151,
 -0.00000176,-0.00000816,0.00000454,-0.00000126,0.00000023,-0.00000080,
 -0.00000583,-0.00000620,0.00000025,0.00000108,0.00000516,-0.00000323,0
 .00000335,0.00000105,-0.00000604,0.00001223,0.00001693,0.00000536,-0.0
 0001093,-0.00000566,-0.00000095,-0.00000295,-0.00000943,-0.00000424,0.
 00000399,0.00000597,0.00000276,0.00000058,-0.00000017,-0.00000022,-0.0
 0000092,-0.00000042,-0.00000017,-0.00000151,-0.00000072,-0.00000002,-0
 .00862480,-0.01516761,0.00614769,0.00068635,-0.00054192,0.00097773,-0.
 00347290,0.00012802,-0.00039837,0.04854410,0.08145377,-0.08527090,-0.0
 0286636,-0.00400448,0.00068377,0.01389040,0.02470177,-0.00995113,-0.04
 946347,-0.08658143,0.08784596\\-0.00000206,-0.00000414,-0.00000157,-0.
 00000166,-0.00000564,-0.00000032,-0.00000184,-0.00000294,-0.00000207,-
 0.00000169,-0.00000407,-0.00000183,-0.00000209,-0.00000178,-0.00000393
 ,-0.00000123,-0.00000292,-0.00000170,-0.00000134,-0.00000333,-0.000000
 56,-0.00000097,-0.00000012,-0.00000236,-0.00000166,0.00000016,-0.00000
 426,-0.00000081,0.00000129,-0.00000318,-0.00000114,0.00000256,-0.00000
 376,-0.00000038,0.00000177,-0.00000157,0.00000002,0.,0.00000047,0.0000
 0051,0.00000198,-0.00000107,0.,0.00000026,-0.00000016,-0.00000016,0.00
 000069,-0.00000122,0.00000022,0.00000156,-0.00000017,0.00000006,0.0000
 0306,-0.00000156,0.00000071,0.00000145,0.00000113,0.00000109,-0.000001
 53,0.00000204,0.00000013,-0.00000230,0.00000263,0.00000074,-0.00000191
 ,0.00000335,0.00000124,-0.00000398,0.00000524,0.00000143,-0.00000405,0
 .00000623,0.00000089,-0.00000579,0.00000495,0.00000217,-0.00000295,0.0
 0000632,-0.00000163,0.00000254,-0.00000142,0.00000019,0.00000180,0.000
 00071,0.00000211,0.00000419,0.00000196,0.00000432,0.00000610,0.0000007
 5,0.00000163,0.00000568,0.00000048,0.00000129,0.00000720,-0.00000097,-
 0.00000009,0.00000517,-0.00000256\\\@


 HE THAT FOLLOWS NATURE IS NEVER LOST.

                             -- BACON
 Job cpu time:       0 days  1 hours 56 minutes  5.0 seconds.
 File lengths (MBytes):  RWF=    463 Int=      0 D2E=      0 Chk=     24 Scr=      1
 Normal termination of Gaussian 09 at Mon Mar 20 18:17:37 2017.
