 Entering Gaussian System, Link 0=g09
 Input=da_ortho_exo_full-b3lyp_d3bj-dz-ts.gjf
 Output=da_ortho_exo_full-b3lyp_d3bj-dz-ts.out
 Initial command:
 /n/sw/g09_D.01/g09/l1.exe "/scratch/ekwan_da_ortho_exo_full-b3lyp_d3bj-dz-ts/Gau-10722.inp" -scrdir="/scratch/ekwan_da_ortho_exo_full-b3lyp_d3bj-dz-ts/"
 Entering Link 1 = /n/sw/g09_D.01/g09/l1.exe PID=     10723.
  
 Copyright (c) 1988,1990,1992,1993,1995,1998,2003,2009,2013,
            Gaussian, Inc.  All Rights Reserved.
  
 This is part of the Gaussian(R) 09 program.  It is based on
 the Gaussian(R) 03 system (copyright 2003, Gaussian, Inc.),
 the Gaussian(R) 98 system (copyright 1998, Gaussian, Inc.),
 the Gaussian(R) 94 system (copyright 1995, Gaussian, Inc.),
 the Gaussian 92(TM) system (copyright 1992, Gaussian, Inc.),
 the Gaussian 90(TM) system (copyright 1990, Gaussian, Inc.),
 the Gaussian 88(TM) system (copyright 1988, Gaussian, Inc.),
 the Gaussian 86(TM) system (copyright 1986, Carnegie Mellon
 University), and the Gaussian 82(TM) system (copyright 1983,
 Carnegie Mellon University). Gaussian is a federally registered
 trademark of Gaussian, Inc.
  
 This software contains proprietary and confidential information,
 including trade secrets, belonging to Gaussian, Inc.
  
 This software is provided under written license and may be
 used, copied, transmitted, or stored only in accord with that
 written license.
  
 The following legend is applicable only to US Government
 contracts under FAR:
  
                    RESTRICTED RIGHTS LEGEND
  
 Use, reproduction and disclosure by the US Government is
 subject to restrictions as set forth in subparagraphs (a)
 and (c) of the Commercial Computer Software - Restricted
 Rights clause in FAR 52.227-19.
  
 Gaussian, Inc.
 340 Quinnipiac St., Bldg. 40, Wallingford CT 06492
  
  
 ---------------------------------------------------------------
 Warning -- This program may not be used in any manner that
 competes with the business of Gaussian, Inc. or will provide
 assistance to any competitor of Gaussian, Inc.  The licensee
 of this program is prohibited from giving any competitor of
 Gaussian, Inc. access to this program.  By using this program,
 the user acknowledges that Gaussian, Inc. is engaged in the
 business of creating and licensing software in the field of
 computational chemistry and represents and warrants to the
 licensee that it is not a competitor of Gaussian, Inc. and that
 it will not use this program in any manner prohibited above.
 ---------------------------------------------------------------
  

 Cite this work as:
 Gaussian 09, Revision D.01,
 M. J. Frisch, G. W. Trucks, H. B. Schlegel, G. E. Scuseria, 
 M. A. Robb, J. R. Cheeseman, G. Scalmani, V. Barone, B. Mennucci, 
 G. A. Petersson, H. Nakatsuji, M. Caricato, X. Li, H. P. Hratchian, 
 A. F. Izmaylov, J. Bloino, G. Zheng, J. L. Sonnenberg, M. Hada, 
 M. Ehara, K. Toyota, R. Fukuda, J. Hasegawa, M. Ishida, T. Nakajima, 
 Y. Honda, O. Kitao, H. Nakai, T. Vreven, J. A. Montgomery, Jr., 
 J. E. Peralta, F. Ogliaro, M. Bearpark, J. J. Heyd, E. Brothers, 
 K. N. Kudin, V. N. Staroverov, T. Keith, R. Kobayashi, J. Normand, 
 K. Raghavachari, A. Rendell, J. C. Burant, S. S. Iyengar, J. Tomasi, 
 M. Cossi, N. Rega, J. M. Millam, M. Klene, J. E. Knox, J. B. Cross, 
 V. Bakken, C. Adamo, J. Jaramillo, R. Gomperts, R. E. Stratmann, 
 O. Yazyev, A. J. Austin, R. Cammi, C. Pomelli, J. W. Ochterski, 
 R. L. Martin, K. Morokuma, V. G. Zakrzewski, G. A. Voth, 
 P. Salvador, J. J. Dannenberg, S. Dapprich, A. D. Daniels, 
 O. Farkas, J. B. Foresman, J. V. Ortiz, J. Cioslowski, 
 and D. J. Fox, Gaussian, Inc., Wallingford CT, 2013.
 
 ******************************************
 Gaussian 09:  EM64L-G09RevD.01 24-Apr-2013
                20-Mar-2017 
 ******************************************
 %nprocshared=8
 Will use up to    8 processors via shared memory.
 %mem=3GB
 ----------------------------------------------------------------------
 #p b3lyp empiricaldispersion=gd3bj cc-pVDZ scrf=(pcm,solvent=1,4-dioxa
 ne) opt=(ts,calcfc,maxstep=5,noeigentest) freq=noraman temperature=383
 ----------------------------------------------------------------------
 1/5=1,8=5,10=4,11=1,14=-1,18=20,26=3,38=1,112=383000/1,3;
 2/9=110,12=2,17=6,18=5,40=1/2;
 3/5=16,11=2,16=1,25=1,30=1,70=2201,71=2,72=31,74=-5,124=41,140=1/1,2,3;
 4//1;
 5/5=2,38=5,53=31/2;
 8/6=4,10=90,11=11/1;
 11/6=1,8=1,9=11,15=111,16=1/1,2,10;
 10/6=1,13=1/2;
 6/7=2,8=2,9=2,10=2,28=1/1;
 7/10=1,18=20,25=1/1,2,3,16;
 1/5=1,8=5,10=4,11=1,14=-1,18=20,26=3/3(2);
 2/9=110/2;
 99//99;
 2/9=110/2;
 3/5=16,11=2,16=1,25=1,30=1,70=2205,71=1,72=31,74=-5,124=41/1,2,3;
 4/5=5,16=3,69=1/1;
 5/5=2,38=5,53=31/2;
 7//1,2,3,16;
 1/5=1,8=5,11=1,14=-1,18=20,26=3/3(-5);
 2/9=110/2;
 6/7=2,8=2,9=2,10=2,19=2,28=1/1;
 99/9=1/99;
 Leave Link    1 at Mon Mar 20 17:38:53 2017, MaxMem=   402653184 cpu:         0.6
 (Enter /n/sw/g09_D.01/g09/l101.exe)
 -------------------
 Title Card Required
 -------------------
 Symbolic Z-matrix:
 Charge =  0 Multiplicity = 1
 C                    -1.0505    2.7845   -0.35357 
 H                    -0.96883   3.81535  -0.01446 
 C                    -2.32106   2.20075  -0.36887 
 H                    -3.18257   2.85038  -0.2344 
 H                    -2.51914   1.34731  -1.01174 
 C                     0.14984   2.07007  -0.48702 
 H                     1.08721   2.5488   -0.23635 
 C                     0.13727   0.712    -0.74579 
 H                    -0.72909   0.26732  -1.21421 
 N                     1.20353  -0.16841  -0.70158 
 H                     0.93561  -1.15011  -0.65947 
 C                     2.46454   0.11438  -0.21469 
 O                     2.91555   1.21986   0.01871 
 O                     3.14441  -1.04329  -0.06726 
 C                    -1.35872   0.04719   1.2466 
 H                    -0.44372   0.16162   1.81327 
 C                    -2.37126   1.01106   1.30231 
 H                    -2.2873    1.78512   2.05842 
 H                    -3.38848   0.69657   1.09035 
 C                    -1.48447  -1.21165   0.54641 
 O                    -0.62434  -2.09199   0.48979 
 O                    -2.6569   -1.31615  -0.14996 
 C                    -2.82124  -2.52792  -0.89627 
 H                    -2.79747  -3.39746  -0.23419 
 H                    -2.03157  -2.63461  -1.64543 
 C                     4.48958  -0.89765   0.41359 
 H                     4.49466  -0.43244   1.40245 
 H                     4.8877   -1.91062   0.46588 
 H                     5.07929  -0.2876   -0.27513 
 C                    -4.19617  -2.41025  -1.57988 
 H                    -4.37955  -3.28683  -2.16543 
 H                    -4.95787  -2.31333  -0.83468 
 H                    -4.20641  -1.54882  -2.2145 
 
 Add virtual bond connecting atoms C17        and C3         Dist= 3.88D+00.
 Add virtual bond connecting atoms O21        and H11        Dist= 4.07D+00.
 NAtoms=     33 NQM=       33 NQMF=       0 NMMI=      0 NMMIF=      0
                NMic=       0 NMicF=      0.
                    Isotopes and Nuclear Properties:
 (Nuclear quadrupole moments (NQMom) in fm**2, nuclear magnetic moments (NMagM)
  in nuclear magnetons)

  Atom         1           2           3           4           5           6           7           8           9          10
 IAtWgt=          12           1          12           1           1          12           1          12           1          14
 AtmWgt=  12.0000000   1.0078250  12.0000000   1.0078250   1.0078250  12.0000000   1.0078250  12.0000000   1.0078250  14.0030740
 NucSpn=           0           1           0           1           1           0           1           0           1           2
 AtZEff=   0.0000000   0.0000000   0.0000000   0.0000000   0.0000000   0.0000000   0.0000000   0.0000000   0.0000000   0.0000000
 NQMom=    0.0000000   0.0000000   0.0000000   0.0000000   0.0000000   0.0000000   0.0000000   0.0000000   0.0000000   2.0440000
 NMagM=    0.0000000   2.7928460   0.0000000   2.7928460   2.7928460   0.0000000   2.7928460   0.0000000   2.7928460   0.4037610
 AtZNuc=   6.0000000   1.0000000   6.0000000   1.0000000   1.0000000   6.0000000   1.0000000   6.0000000   1.0000000   7.0000000

  Atom        11          12          13          14          15          16          17          18          19          20
 IAtWgt=           1          12          16          16          12           1          12           1           1          12
 AtmWgt=   1.0078250  12.0000000  15.9949146  15.9949146  12.0000000   1.0078250  12.0000000   1.0078250   1.0078250  12.0000000
 NucSpn=           1           0           0           0           0           1           0           1           1           0
 AtZEff=   0.0000000   0.0000000   0.0000000   0.0000000   0.0000000   0.0000000   0.0000000   0.0000000   0.0000000   0.0000000
 NQMom=    0.0000000   0.0000000   0.0000000   0.0000000   0.0000000   0.0000000   0.0000000   0.0000000   0.0000000   0.0000000
 NMagM=    2.7928460   0.0000000   0.0000000   0.0000000   0.0000000   2.7928460   0.0000000   2.7928460   2.7928460   0.0000000
 AtZNuc=   1.0000000   6.0000000   8.0000000   8.0000000   6.0000000   1.0000000   6.0000000   1.0000000   1.0000000   6.0000000

  Atom        21          22          23          24          25          26          27          28          29          30
 IAtWgt=          16          16          12           1           1          12           1           1           1          12
 AtmWgt=  15.9949146  15.9949146  12.0000000   1.0078250   1.0078250  12.0000000   1.0078250   1.0078250   1.0078250  12.0000000
 NucSpn=           0           0           0           1           1           0           1           1           1           0
 AtZEff=   0.0000000   0.0000000   0.0000000   0.0000000   0.0000000   0.0000000   0.0000000   0.0000000   0.0000000   0.0000000
 NQMom=    0.0000000   0.0000000   0.0000000   0.0000000   0.0000000   0.0000000   0.0000000   0.0000000   0.0000000   0.0000000
 NMagM=    0.0000000   0.0000000   0.0000000   2.7928460   2.7928460   0.0000000   2.7928460   2.7928460   2.7928460   0.0000000
 AtZNuc=   8.0000000   8.0000000   6.0000000   1.0000000   1.0000000   6.0000000   1.0000000   1.0000000   1.0000000   6.0000000

  Atom        31          32          33
 IAtWgt=           1           1           1
 AtmWgt=   1.0078250   1.0078250   1.0078250
 NucSpn=           1           1           1
 AtZEff=   0.0000000   0.0000000   0.0000000
 NQMom=    0.0000000   0.0000000   0.0000000
 NMagM=    2.7928460   2.7928460   2.7928460
 AtZNuc=   1.0000000   1.0000000   1.0000000
 Leave Link  101 at Mon Mar 20 17:38:53 2017, MaxMem=   402653184 cpu:         1.6
 (Enter /n/sw/g09_D.01/g09/l103.exe)

 GradGradGradGradGradGradGradGradGradGradGradGradGradGradGradGradGradGrad
 Berny optimization.
 Initialization pass.
                           ----------------------------
                           !    Initial Parameters    !
                           ! (Angstroms and Degrees)  !
 --------------------------                            --------------------------
 ! Name  Definition              Value          Derivative Info.                !
 --------------------------------------------------------------------------------
 ! R1    R(1,2)                  1.0883         calculate D2E/DX2 analytically  !
 ! R2    R(1,3)                  1.3983         calculate D2E/DX2 analytically  !
 ! R3    R(1,6)                  1.4032         calculate D2E/DX2 analytically  !
 ! R4    R(3,4)                  1.0873         calculate D2E/DX2 analytically  !
 ! R5    R(3,5)                  1.0867         calculate D2E/DX2 analytically  !
 ! R6    R(3,17)                 2.052          calculate D2E/DX2 analytically  !
 ! R7    R(6,7)                  1.082          calculate D2E/DX2 analytically  !
 ! R8    R(6,8)                  1.3826         calculate D2E/DX2 analytically  !
 ! R9    R(8,9)                  1.0806         calculate D2E/DX2 analytically  !
 ! R10   R(8,10)                 1.3835         calculate D2E/DX2 analytically  !
 ! R11   R(10,11)                1.0185         calculate D2E/DX2 analytically  !
 ! R12   R(10,12)                1.381          calculate D2E/DX2 analytically  !
 ! R13   R(11,21)                2.1544         calculate D2E/DX2 analytically  !
 ! R14   R(12,13)                1.2165         calculate D2E/DX2 analytically  !
 ! R15   R(12,14)                1.3506         calculate D2E/DX2 analytically  !
 ! R16   R(14,26)                1.4359         calculate D2E/DX2 analytically  !
 ! R17   R(15,16)                1.0823         calculate D2E/DX2 analytically  !
 ! R18   R(15,17)                1.3991         calculate D2E/DX2 analytically  !
 ! R19   R(15,20)                1.4459         calculate D2E/DX2 analytically  !
 ! R20   R(17,18)                1.0853         calculate D2E/DX2 analytically  !
 ! R21   R(17,19)                1.0856         calculate D2E/DX2 analytically  !
 ! R22   R(20,21)                1.2321         calculate D2E/DX2 analytically  !
 ! R23   R(20,22)                1.3676         calculate D2E/DX2 analytically  !
 ! R24   R(22,23)                1.4326         calculate D2E/DX2 analytically  !
 ! R25   R(23,24)                1.0932         calculate D2E/DX2 analytically  !
 ! R26   R(23,25)                1.0937         calculate D2E/DX2 analytically  !
 ! R27   R(23,30)                1.54           calculate D2E/DX2 analytically  !
 ! R28   R(26,27)                1.0928         calculate D2E/DX2 analytically  !
 ! R29   R(26,28)                1.0896         calculate D2E/DX2 analytically  !
 ! R30   R(26,29)                1.0928         calculate D2E/DX2 analytically  !
 ! R31   R(30,31)                1.07           calculate D2E/DX2 analytically  !
 ! R32   R(30,32)                1.07           calculate D2E/DX2 analytically  !
 ! R33   R(30,33)                1.07           calculate D2E/DX2 analytically  !
 ! A1    A(2,1,3)              117.8424         calculate D2E/DX2 analytically  !
 ! A2    A(2,1,6)              116.5972         calculate D2E/DX2 analytically  !
 ! A3    A(3,1,6)              124.3097         calculate D2E/DX2 analytically  !
 ! A4    A(1,3,4)              117.9792         calculate D2E/DX2 analytically  !
 ! A5    A(1,3,5)              119.9977         calculate D2E/DX2 analytically  !
 ! A6    A(1,3,17)             104.794          calculate D2E/DX2 analytically  !
 ! A7    A(4,3,5)              113.4501         calculate D2E/DX2 analytically  !
 ! A8    A(4,3,17)             103.0782         calculate D2E/DX2 analytically  !
 ! A9    A(5,3,17)              91.2611         calculate D2E/DX2 analytically  !
 ! A10   A(1,6,7)              119.5893         calculate D2E/DX2 analytically  !
 ! A11   A(1,6,8)              120.6733         calculate D2E/DX2 analytically  !
 ! A12   A(7,6,8)              119.0687         calculate D2E/DX2 analytically  !
 ! A13   A(6,8,9)              119.5136         calculate D2E/DX2 analytically  !
 ! A14   A(6,8,10)             127.7424         calculate D2E/DX2 analytically  !
 ! A15   A(9,8,10)             111.709          calculate D2E/DX2 analytically  !
 ! A16   A(8,10,11)            114.3286         calculate D2E/DX2 analytically  !
 ! A17   A(8,10,12)            125.7825         calculate D2E/DX2 analytically  !
 ! A18   A(11,10,12)           115.0244         calculate D2E/DX2 analytically  !
 ! A19   A(10,11,21)           129.3412         calculate D2E/DX2 analytically  !
 ! A20   A(10,12,13)           126.3157         calculate D2E/DX2 analytically  !
 ! A21   A(10,12,14)           108.8205         calculate D2E/DX2 analytically  !
 ! A22   A(13,12,14)           124.8435         calculate D2E/DX2 analytically  !
 ! A23   A(12,14,26)           114.9089         calculate D2E/DX2 analytically  !
 ! A24   A(16,15,17)           121.2081         calculate D2E/DX2 analytically  !
 ! A25   A(16,15,20)           114.7776         calculate D2E/DX2 analytically  !
 ! A26   A(17,15,20)           123.7891         calculate D2E/DX2 analytically  !
 ! A27   A(3,17,15)            110.4442         calculate D2E/DX2 analytically  !
 ! A28   A(3,17,18)             98.7426         calculate D2E/DX2 analytically  !
 ! A29   A(3,17,19)             91.8264         calculate D2E/DX2 analytically  !
 ! A30   A(15,17,18)           117.5879         calculate D2E/DX2 analytically  !
 ! A31   A(15,17,19)           118.084          calculate D2E/DX2 analytically  !
 ! A32   A(18,17,19)           114.5267         calculate D2E/DX2 analytically  !
 ! A33   A(15,20,21)           125.7042         calculate D2E/DX2 analytically  !
 ! A34   A(15,20,22)           112.8076         calculate D2E/DX2 analytically  !
 ! A35   A(21,20,22)           121.3638         calculate D2E/DX2 analytically  !
 ! A36   A(11,21,20)           102.5693         calculate D2E/DX2 analytically  !
 ! A37   A(20,22,23)           115.3552         calculate D2E/DX2 analytically  !
 ! A38   A(22,23,24)           110.781          calculate D2E/DX2 analytically  !
 ! A39   A(22,23,25)           110.8864         calculate D2E/DX2 analytically  !
 ! A40   A(22,23,30)           105.6071         calculate D2E/DX2 analytically  !
 ! A41   A(24,23,25)           108.7571         calculate D2E/DX2 analytically  !
 ! A42   A(24,23,30)           110.429          calculate D2E/DX2 analytically  !
 ! A43   A(25,23,30)           110.3664         calculate D2E/DX2 analytically  !
 ! A44   A(14,26,27)           110.5202         calculate D2E/DX2 analytically  !
 ! A45   A(14,26,28)           105.3107         calculate D2E/DX2 analytically  !
 ! A46   A(14,26,29)           110.5539         calculate D2E/DX2 analytically  !
 ! A47   A(27,26,28)           110.5248         calculate D2E/DX2 analytically  !
 ! A48   A(27,26,29)           109.276          calculate D2E/DX2 analytically  !
 ! A49   A(28,26,29)           110.6118         calculate D2E/DX2 analytically  !
 ! A50   A(23,30,31)           109.4712         calculate D2E/DX2 analytically  !
 ! A51   A(23,30,32)           109.4712         calculate D2E/DX2 analytically  !
 ! A52   A(23,30,33)           109.4712         calculate D2E/DX2 analytically  !
 ! A53   A(31,30,32)           109.4713         calculate D2E/DX2 analytically  !
 ! A54   A(31,30,33)           109.4712         calculate D2E/DX2 analytically  !
 ! A55   A(32,30,33)           109.4712         calculate D2E/DX2 analytically  !
 ! D1    D(2,1,3,4)             11.8946         calculate D2E/DX2 analytically  !
 ! D2    D(2,1,3,5)            157.6868         calculate D2E/DX2 analytically  !
 ! D3    D(2,1,3,17)          -102.0163         calculate D2E/DX2 analytically  !
 ! D4    D(6,1,3,4)            178.6562         calculate D2E/DX2 analytically  !
 ! D5    D(6,1,3,5)            -35.5516         calculate D2E/DX2 analytically  !
 ! D6    D(6,1,3,17)            64.7453         calculate D2E/DX2 analytically  !
 ! D7    D(2,1,6,7)              1.1855         calculate D2E/DX2 analytically  !
 ! D8    D(2,1,6,8)            171.7276         calculate D2E/DX2 analytically  !
 ! D9    D(3,1,6,7)           -165.7259         calculate D2E/DX2 analytically  !
 ! D10   D(3,1,6,8)              4.8162         calculate D2E/DX2 analytically  !
 ! D11   D(1,3,17,15)          -59.5782         calculate D2E/DX2 analytically  !
 ! D12   D(1,3,17,18)           64.2963         calculate D2E/DX2 analytically  !
 ! D13   D(1,3,17,19)          179.4542         calculate D2E/DX2 analytically  !
 ! D14   D(4,3,17,15)          176.3999         calculate D2E/DX2 analytically  !
 ! D15   D(4,3,17,18)          -59.7256         calculate D2E/DX2 analytically  !
 ! D16   D(4,3,17,19)           55.4323         calculate D2E/DX2 analytically  !
 ! D17   D(5,3,17,15)           61.9586         calculate D2E/DX2 analytically  !
 ! D18   D(5,3,17,18)         -174.1668         calculate D2E/DX2 analytically  !
 ! D19   D(5,3,17,19)          -59.009          calculate D2E/DX2 analytically  !
 ! D20   D(1,6,8,9)             23.5035         calculate D2E/DX2 analytically  !
 ! D21   D(1,6,8,10)          -169.1526         calculate D2E/DX2 analytically  !
 ! D22   D(7,6,8,9)           -165.9057         calculate D2E/DX2 analytically  !
 ! D23   D(7,6,8,10)             1.4382         calculate D2E/DX2 analytically  !
 ! D24   D(6,8,10,11)          163.0646         calculate D2E/DX2 analytically  !
 ! D25   D(6,8,10,12)            9.1535         calculate D2E/DX2 analytically  !
 ! D26   D(9,8,10,11)          -28.7779         calculate D2E/DX2 analytically  !
 ! D27   D(9,8,10,12)          177.3109         calculate D2E/DX2 analytically  !
 ! D28   D(8,10,11,21)         -41.9684         calculate D2E/DX2 analytically  !
 ! D29   D(12,10,11,21)        114.8457         calculate D2E/DX2 analytically  !
 ! D30   D(8,10,12,13)         -14.5528         calculate D2E/DX2 analytically  !
 ! D31   D(8,10,12,14)         167.032          calculate D2E/DX2 analytically  !
 ! D32   D(11,10,12,13)       -168.3068         calculate D2E/DX2 analytically  !
 ! D33   D(11,10,12,14)         13.278          calculate D2E/DX2 analytically  !
 ! D34   D(10,11,21,20)         31.8594         calculate D2E/DX2 analytically  !
 ! D35   D(10,12,14,26)        178.9778         calculate D2E/DX2 analytically  !
 ! D36   D(13,12,14,26)          0.5337         calculate D2E/DX2 analytically  !
 ! D37   D(12,14,26,27)         61.031          calculate D2E/DX2 analytically  !
 ! D38   D(12,14,26,28)       -179.5882         calculate D2E/DX2 analytically  !
 ! D39   D(12,14,26,29)        -60.0861         calculate D2E/DX2 analytically  !
 ! D40   D(16,15,17,3)         101.767          calculate D2E/DX2 analytically  !
 ! D41   D(16,15,17,18)        -10.4308         calculate D2E/DX2 analytically  !
 ! D42   D(16,15,17,19)       -154.4962         calculate D2E/DX2 analytically  !
 ! D43   D(20,15,17,3)         -83.9732         calculate D2E/DX2 analytically  !
 ! D44   D(20,15,17,18)        163.829          calculate D2E/DX2 analytically  !
 ! D45   D(20,15,17,19)         19.7637         calculate D2E/DX2 analytically  !
 ! D46   D(16,15,20,21)         -4.3474         calculate D2E/DX2 analytically  !
 ! D47   D(16,15,20,22)        179.6853         calculate D2E/DX2 analytically  !
 ! D48   D(17,15,20,21)       -178.9411         calculate D2E/DX2 analytically  !
 ! D49   D(17,15,20,22)          5.0916         calculate D2E/DX2 analytically  !
 ! D50   D(15,20,21,11)        -66.7972         calculate D2E/DX2 analytically  !
 ! D51   D(22,20,21,11)        108.8487         calculate D2E/DX2 analytically  !
 ! D52   D(15,20,22,23)        178.2767         calculate D2E/DX2 analytically  !
 ! D53   D(21,20,22,23)          2.1115         calculate D2E/DX2 analytically  !
 ! D54   D(20,22,23,24)         60.333          calculate D2E/DX2 analytically  !
 ! D55   D(20,22,23,25)        -60.5263         calculate D2E/DX2 analytically  !
 ! D56   D(20,22,23,30)        179.9125         calculate D2E/DX2 analytically  !
 ! D57   D(22,23,30,31)        179.5219         calculate D2E/DX2 analytically  !
 ! D58   D(22,23,30,32)        -60.4781         calculate D2E/DX2 analytically  !
 ! D59   D(22,23,30,33)         59.5219         calculate D2E/DX2 analytically  !
 ! D60   D(24,23,30,31)        -60.6665         calculate D2E/DX2 analytically  !
 ! D61   D(24,23,30,32)         59.3335         calculate D2E/DX2 analytically  !
 ! D62   D(24,23,30,33)        179.3335         calculate D2E/DX2 analytically  !
 ! D63   D(25,23,30,31)         59.618          calculate D2E/DX2 analytically  !
 ! D64   D(25,23,30,32)        179.618          calculate D2E/DX2 analytically  !
 ! D65   D(25,23,30,33)        -60.382          calculate D2E/DX2 analytically  !
 --------------------------------------------------------------------------------
 Trust Radius=5.00D-02 FncErr=1.00D-07 GrdErr=1.00D-06
 Number of steps in this run=    163 maximum allowed number of steps=    198.
 Search for a saddle point of order  1.
 GradGradGradGradGradGradGradGradGradGradGradGradGradGradGradGradGradGrad

 Leave Link  103 at Mon Mar 20 17:38:53 2017, MaxMem=   402653184 cpu:         0.1
 (Enter /n/sw/g09_D.01/g09/l202.exe)
                          Input orientation:                          
 ---------------------------------------------------------------------
 Center     Atomic      Atomic             Coordinates (Angstroms)
 Number     Number       Type             X           Y           Z
 ---------------------------------------------------------------------
      1          6           0       -1.050497    2.784500   -0.353566
      2          1           0       -0.968826    3.815346   -0.014462
      3          6           0       -2.321055    2.200749   -0.368874
      4          1           0       -3.182568    2.850377   -0.234404
      5          1           0       -2.519138    1.347311   -1.011738
      6          6           0        0.149838    2.070070   -0.487023
      7          1           0        1.087212    2.548803   -0.236352
      8          6           0        0.137269    0.711995   -0.745791
      9          1           0       -0.729092    0.267321   -1.214208
     10          7           0        1.203533   -0.168406   -0.701576
     11          1           0        0.935610   -1.150110   -0.659472
     12          6           0        2.464543    0.114381   -0.214685
     13          8           0        2.915554    1.219860    0.018707
     14          8           0        3.144408   -1.043287   -0.067264
     15          6           0       -1.358724    0.047189    1.246604
     16          1           0       -0.443724    0.161619    1.813274
     17          6           0       -2.371255    1.011064    1.302308
     18          1           0       -2.287295    1.785116    2.058419
     19          1           0       -3.388475    0.696565    1.090351
     20          6           0       -1.484465   -1.211648    0.546409
     21          8           0       -0.624335   -2.091991    0.489790
     22          8           0       -2.656897   -1.316152   -0.149955
     23          6           0       -2.821243   -2.527920   -0.896274
     24          1           0       -2.797469   -3.397461   -0.234186
     25          1           0       -2.031567   -2.634612   -1.645428
     26          6           0        4.489582   -0.897651    0.413589
     27          1           0        4.494661   -0.432444    1.402448
     28          1           0        4.887699   -1.910615    0.465877
     29          1           0        5.079294   -0.287598   -0.275133
     30          6           0       -4.196175   -2.410248   -1.579879
     31          1           0       -4.379551   -3.286834   -2.165430
     32          1           0       -4.957873   -2.313328   -0.834680
     33          1           0       -4.206409   -1.548823   -2.214499
 ---------------------------------------------------------------------
                    Distance matrix (angstroms):
                    1          2          3          4          5
     1  C    0.000000
     2  H    1.088258   0.000000
     3  C    1.398327   2.135663   0.000000
     4  H    2.136414   2.424911   1.087338   0.000000
     5  H    2.157686   3.080458   1.086677   1.817579   0.000000
     6  C    1.403220   2.126196   2.477165   3.431854   2.814452
     7  H    2.153855   2.425007   3.428555   4.280417   3.879506
     8  C    2.420724   3.374770   2.898588   3.981898   2.744240
     9  H    2.679589   3.753045   2.643308   3.694826   2.100390
    10  N    3.731141   4.589286   4.259848   5.345015   4.031362
    11  H    4.418071   5.357114   4.681727   5.757080   4.277439
    12  C    4.416371   5.052252   5.222897   6.275024   5.195429
    13  O    4.279748   4.671836   5.341763   6.317416   5.532986
    14  O    5.686049   6.366145   6.362863   7.430961   6.219545
    15  C    3.185658   3.992658   2.858963   3.657548   2.852540
    16  H    3.455846   4.118989   3.527633   4.350135   3.700527
    17  C    2.762498   3.400689   2.052004   2.530372   2.343019
    18  H    2.888963   3.187010   2.462852   2.682039   3.109870
    19  H    3.451161   4.099037   2.351870   2.536982   2.366008
    20  C    4.119160   5.084401   3.630713   4.471383   3.169644
    21  O    4.967195   5.938819   4.695080   5.612131   4.204006
    22  O    4.408778   5.403722   3.539676   4.200408   2.802799
    23  C    5.626000   6.666788   4.784208   5.430903   3.888703
    24  H    6.425170   7.444246   5.620059   6.259695   4.816110
    25  H    5.656693   6.737316   5.009402   5.779351   4.061404
    26  C    6.696211   7.224250   7.523105   8.563264   7.496237
    27  H    6.646886   7.064067   7.518329   8.508586   7.628184
    28  H    7.614313   8.204647   8.340639   9.396097   8.225489
    29  H    6.856987   7.313129   7.808061   8.837811   7.807156
    30  C    6.195526   7.185007   5.122880   5.523756   4.153852
    31  H    7.157272   8.167048   6.130138   6.544233   5.125177
    32  H    6.441033   7.358390   5.248493   5.493258   4.402165
    33  H    5.674552   6.640514   4.584778   4.931733   3.561055
                    6          7          8          9         10
     6  C    0.000000
     7  H    1.081985   0.000000
     8  C    1.382565   2.129738   0.000000
     9  H    2.133359   3.075764   1.080616   0.000000
    10  N    2.483361   2.759201   1.383467   2.046384   0.000000
    11  H    3.319147   3.726120   2.027864   2.255676   1.018478
    12  C    3.042490   2.797127   2.460776   3.349887   1.381006
    13  O    2.937313   2.274638   2.925962   3.963692   2.318859
    14  O    4.340120   4.142916   3.547436   4.247020   2.221433
    15  C    3.061580   3.799978   2.578682   2.549606   3.225996
    16  H    3.047272   3.499054   2.681283   3.042738   3.024375
    17  C    3.267891   4.085720   3.252206   3.095595   4.264482
    18  H    3.535547   4.151685   3.859235   3.929604   4.860010
    19  H    4.110266   5.022221   3.975239   3.545076   5.004569
    20  C    3.809016   4.622470   2.828463   2.420271   3.141839
    21  O    4.344682   4.999364   3.157378   2.912205   2.908717
    22  O    4.411108   5.381793   3.503679   2.712278   4.065037
    23  C    5.489656   6.440857   4.390044   3.505931   4.669479
    24  H    6.216465   7.102732   5.075633   4.320793   5.162680
    25  H    5.313611   6.211286   4.088151   3.209923   4.175991
    26  C    5.334027   4.886368   4.783069   5.589404   3.545914
    27  H    5.358187   4.814998   4.991146   5.884229   3.915119
    28  H    6.261086   5.901122   5.559929   6.254153   4.239259
    29  H    5.468367   4.897284   5.064022   5.909919   3.900972
    30  C    6.336830   7.369629   5.405815   4.395879   5.912201
    31  H    7.213102   8.225661   6.197392   5.182923   6.560357
    32  H    6.739715   7.780833   5.926293   4.968539   6.525437
    33  H    5.920934   6.980404   5.112333   4.048543   5.784632
                   11         12         13         14         15
    11  H    0.000000
    12  C    2.033325   0.000000
    13  O    3.161782   1.216539   0.000000
    14  O    2.289303   1.350609   2.276313   0.000000
    15  C    3.214128   4.093562   4.599167   4.815972   0.000000
    16  H    3.120524   3.545824   3.952859   4.226454   1.082328
    17  C    4.410738   5.146868   5.444408   6.043064   1.399063
    18  H    5.137081   5.526149   5.616901   6.482422   2.131121
    19  H    5.016951   6.024938   6.415843   6.858988   2.136819
    20  C    2.704570   4.234652   5.054787   4.672409   1.445944
    21  O    2.154384   3.860768   4.870430   3.951394   2.384992
    22  O    3.632256   5.317872   6.124705   5.808307   2.343998
    23  C    4.008538   5.948601   6.913312   6.203256   3.655417
    24  H    4.378051   6.326309   7.349982   6.393426   4.016010
    25  H    3.461213   5.460677   6.488475   5.640358   4.001078
    26  C    3.721010   2.349408   2.667836   1.435940   5.982418
    27  H    4.175333   2.652455   2.671783   2.087191   5.875070
    28  H    4.178969   3.230396   3.726820   2.018802   6.592445
    29  H    4.249913   2.646160   2.653402   2.087597   6.623884
    30  C    5.363796   7.252770   8.143086   7.618448   4.698843
    31  H    5.923212   7.887667   8.848689   8.126855   5.646511
    32  H    6.009735   7.833928   8.671940   8.237044   4.780968
    33  H    5.386784   7.160106   7.960853   7.674679   4.757710
                   16         17         18         19         20
    16  H    0.000000
    17  C    2.167491   0.000000
    18  H    2.468723   1.085315   0.000000
    19  H    3.079017   1.085621   1.826115   0.000000
    20  C    2.138680   2.509627   3.451276   2.749983   0.000000
    21  O    2.619731   3.652515   4.500888   3.972051   1.232085
    22  O    3.306994   2.758005   3.825099   2.474792   1.367641
    23  C    4.497540   4.190544   5.255244   3.829587   2.366618
    24  H    4.732785   4.688024   5.689940   4.343355   2.666662
    25  H    4.722581   4.700584   5.772164   4.519118   2.669887
    26  C    5.236285   7.176636   7.471865   8.066183   5.983767
    27  H    4.990925   7.016733   7.165389   7.969686   6.090149
    28  H    5.876538   7.869450   8.226491   8.699564   6.410890
    29  H    5.921737   7.725641   8.000515   8.633437   6.679201
    30  C    5.675286   4.831429   5.872147   4.175499   3.648440
    31  H    6.573633   5.876256   6.924097   5.239257   4.476828
    32  H    5.789176   4.723229   5.683243   3.902334   3.896879
    33  H    5.771167   4.721096   5.749433   4.078335   3.891694
                   21         22         23         24         25
    21  O    0.000000
    22  O    2.267710   0.000000
    23  C    2.633935   1.432614   0.000000
    24  H    2.636457   2.087751   1.093173   0.000000
    25  H    2.614172   2.089453   1.093711   1.777681   0.000000
    26  C    5.252085   7.180870   7.604057   7.731091   7.055634
    27  H    5.458128   7.371274   7.949691   8.040215   7.531981
    28  H    5.515069   7.592994   7.852662   7.858919   7.270352
    29  H    6.030947   7.805270   8.235493   8.468549   7.612524
    30  C    4.140393   2.368777   1.540000   2.177581   2.177192
    31  H    4.751788   3.303523   2.148263   2.498985   2.491751
    32  H    4.536823   2.599557   2.148263   2.490639   3.053491
    33  H    4.521003   2.591808   2.148263   3.053558   2.496541
                   26         27         28         29         30
    26  C    0.000000
    27  H    1.092834   0.000000
    28  H    1.089645   1.793498   0.000000
    29  H    1.092823   1.782429   1.794433   0.000000
    30  C    9.039040   9.398756   9.324780   9.604287   0.000000
    31  H    9.540496   9.981430   9.731376  10.101405   1.070000
    32  H    9.634144   9.894082   9.939261  10.254823   1.070000
    33  H    9.107752   9.488795   9.487788   9.569541   1.070000
                   31         32         33
    31  H    0.000000
    32  H    1.747303   0.000000
    33  H    1.747303   1.747303   0.000000
 Stoichiometry    C11H17NO4
 Framework group  C1[X(C11H17NO4)]
 Deg. of freedom    93
 Full point group                 C1      NOp   1
 Largest Abelian subgroup         C1      NOp   1
 Largest concise Abelian subgroup C1      NOp   1
                         Standard orientation:                         
 ---------------------------------------------------------------------
 Center     Atomic      Atomic             Coordinates (Angstroms)
 Number     Number       Type             X           Y           Z
 ---------------------------------------------------------------------
      1          6           0       -0.275673    3.000698   -0.465390
      2          1           0        0.004599    4.025270   -0.228734
      3          6           0       -1.623482    2.648041   -0.345554
      4          1           0       -2.350209    3.446535   -0.216796
      5          1           0       -2.012255    1.793610   -0.892975
      6          6           0        0.773170    2.079622   -0.608818
      7          1           0        1.794480    2.406095   -0.463797
      8          6           0        0.512118    0.728266   -0.739878
      9          1           0       -0.450848    0.405445   -1.108949
     10          7           0        1.415320   -0.318135   -0.682878
     11          1           0        0.990337   -1.231553   -0.533363
     12          6           0        2.740314   -0.221516   -0.305738
     13          8           0        3.387720    0.803475   -0.204616
     14          8           0        3.225356   -1.464436   -0.095914
     15          6           0       -0.912618    0.495758    1.396864
     16          1           0        0.050365    0.493835    1.890922
     17          6           0       -1.741115    1.622700    1.428019
     18          1           0       -1.468903    2.428160    2.102588
     19          1           0       -2.810223    1.474425    1.311421
     20          6           0       -1.302978   -0.773740    0.825245
     21          8           0       -0.610262   -1.792208    0.795217
     22          8           0       -2.527469   -0.727562    0.217850
     23          6           0       -2.951484   -1.947820   -0.401477
     24          1           0       -3.022129   -2.752472    0.335117
     25          1           0       -2.252511   -2.250040   -1.186526
     26          6           0        4.609518   -1.517576    0.282497
     27          1           0        4.770642   -0.982885    1.221874
     28          1           0        4.834541   -2.576965    0.402449
     29          1           0        5.237260   -1.076667   -0.495835
     30          6           0       -4.336598   -1.647269   -1.003746
     31          1           0       -4.710295   -2.522403   -1.493021
     32          1           0       -5.010035   -1.359832   -0.223513
     33          1           0       -4.251849   -0.850748   -1.713162
 ---------------------------------------------------------------------
 Rotational constants (GHZ):      0.7130563      0.3207735      0.2487188
 Leave Link  202 at Mon Mar 20 17:38:53 2017, MaxMem=   402653184 cpu:         0.0
 (Enter /n/sw/g09_D.01/g09/l301.exe)
 Standard basis: CC-pVDZ (5D, 7F)
 Ernie: Thresh=  0.10000D-02 Tol=  0.10000D-05 Strict=F.
 Ernie:  32 primitive shells out of 437 were deleted.
 There are   325 symmetry adapted cartesian basis functions of A   symmetry.
 There are   309 symmetry adapted basis functions of A   symmetry.
   309 basis functions,   647 primitive gaussians,   325 cartesian basis functions
    61 alpha electrons       61 beta electrons
       nuclear repulsion energy      1147.5989105857 Hartrees.
 IExCor=  402 DFT=T Ex+Corr=B3LYP ExCW=0 ScaHFX=  0.200000
 ScaDFX=  0.800000  0.720000  1.000000  0.810000 ScalE2=  1.000000  1.000000
 IRadAn=      0 IRanWt=     -1 IRanGd=            0 ICorTp=0 IEmpDi=141
 NAtoms=   33 NActive=   33 NUniq=   33 SFac= 1.00D+00 NAtFMM=   60 NAOKFM=F Big=F
 Integral buffers will be    131072 words long.
 Raffenetti 2 integral format.
 Two-electron integral symmetry is turned on.
 R6Disp:  Grimme-D3(BJ) Dispersion energy=       -0.0600279146 Hartrees.
 Nuclear repulsion after empirical dispersion term =     1147.5388826711 Hartrees.
 Force inversion solution in PCM.
 ------------------------------------------------------------------------------
 Polarizable Continuum Model (PCM)
 =================================
 Model                : PCM (using non-symmetric T matrix).
 Atomic radii         : UFF (Universal Force Field).
 Polarization charges : Total charges.
 Charge compensation  : None.
 Solution method      : Matrix inversion.
 Cavity type          : Scaled VdW (van der Waals Surface) (Alpha=1.100).
 Cavity algorithm     : GePol (No added spheres)
                        Default sphere list used, NSphG=   33.
                        Lebedev-Laikov grids with approx.  5.0 points / Ang**2.
                        Smoothing algorithm: Karplus/York (Gamma=1.0000).
                        Polarization charges: spherical gaussians, with
                                              point-specific exponents (IZeta= 3).
                        Self-potential: point-specific (ISelfS= 7).
                        Self-field    : sphere-specific E.n sum rule (ISelfD= 2).
 1st derivatives      : Analytical E(r).r(x)/FMM algorithm (CHGder, D1EAlg=3).
                        Cavity 1st derivative terms included.
 2nd derivatives      : Analytical E(r).r(xy)/FMM algorithm (CHGder, D2EAlg=3).
                        Cavity 2nd derivative terms included.
 Solvent              : 1,4-Dioxane, Eps=   2.209900 Eps(inf)=   2.023222
 ------------------------------------------------------------------------------
 GePol: Number of generator spheres                  =      33
 GePol: Total number of spheres                      =      33
 GePol: Number of exposed spheres                    =      33 (100.00%)
 GePol: Number of points                             =    2434
 GePol: Average weight of points                     =       0.13
 GePol: Minimum weight of points                     =   0.30D-09
 GePol: Maximum weight of points                     =    0.20577
 GePol: Number of points with low weight             =     146
 GePol: Fraction of low-weight points (<1% of avg)   =       6.00%
 GePol: Cavity surface area                          =    316.459 Ang**2
 GePol: Cavity volume                                =    334.552 Ang**3
 Leave Link  301 at Mon Mar 20 17:38:53 2017, MaxMem=   402653184 cpu:         0.7
 (Enter /n/sw/g09_D.01/g09/l302.exe)
 NPDir=0 NMtPBC=     1 NCelOv=     1 NCel=       1 NClECP=     1 NCelD=      1
         NCelK=      1 NCelE2=     1 NClLst=     1 CellRange=     0.0.
 One-electron integrals computed using PRISM.
 NBasis=   309 RedAO= T EigKep=  1.13D-03  NBF=   309
 NBsUse=   309 1.00D-06 EigRej= -1.00D+00 NBFU=   309
 Precomputing XC quadrature grid using
 IXCGrd= 4 IRadAn=           0 IRanWt=          -1 IRanGd=           0 AccXCQ= 0.00D+00.
 Generated NRdTot=       0 NPtTot=           0 NUsed=           0 NTot=          32
 NSgBfM=   324   324   324   324   324 MxSgAt=    33 MxSgA2=    33.
 Leave Link  302 at Mon Mar 20 17:38:54 2017, MaxMem=   402653184 cpu:         4.6
 (Enter /n/sw/g09_D.01/g09/l303.exe)
 DipDrv:  MaxL=1.
 Leave Link  303 at Mon Mar 20 17:38:54 2017, MaxMem=   402653184 cpu:         0.8
 (Enter /n/sw/g09_D.01/g09/l401.exe)
 ExpMin= 1.22D-01 ExpMax= 1.17D+04 ExpMxC= 4.01D+02 IAcc=1 IRadAn=         1 AccDes= 0.00D+00
 Harris functional with IExCor=  402 and IRadAn=       1 diagonalized for initial guess.
 HarFok:  IExCor=  402 AccDes= 0.00D+00 IRadAn=         1 IDoV= 1 UseB2=F ITyADJ=14
 ICtDFT=  3500011 ScaDFX=  1.000000  1.000000  1.000000  1.000000
 FoFCou: FMM=F IPFlag=           0 FMFlag=      100000 FMFlg1=           0
         NFxFlg=           0 DoJE=T BraDBF=F KetDBF=T FulRan=T
         wScrn=  0.000000 ICntrl=     500 IOpCl=  0 I1Cent=   200000004 NGrid=           0
         NMat0=    1 NMatS0=      1 NMatT0=    0 NMatD0=    1 NMtDS0=    0 NMtDT0=    0
 Petite list used in FoFCou.
 Harris En= -785.133223879418    
 JPrj=0 DoOrth=F DoCkMO=F.
 Leave Link  401 at Mon Mar 20 17:38:55 2017, MaxMem=   402653184 cpu:         7.9
 (Enter /n/sw/g09_D.01/g09/l502.exe)
 Closed shell SCF:
 Using DIIS extrapolation, IDIIS=  1040.
 Integral symmetry usage will be decided dynamically.
 IVT=      340497 IEndB=      340497 NGot=   402653184 MDV=   402435278
 LenX=   402435278 LenY=   402329212
 Requested convergence on RMS density matrix=1.00D-08 within 128 cycles.
 Requested convergence on MAX density matrix=1.00D-06.
 Requested convergence on             energy=1.00D-06.
 No special actions if energy rises.
 Fock matrices will be formed incrementally for  20 cycles.

 Cycle   1  Pass 1  IDiag  1:
 FoFJK:  IHMeth= 1 ICntrl=       0 DoSepK=F KAlg= 0 I1Cent=   0 FoldK=F
 IRaf= 840000000 NMat=   1 IRICut=       1 DoRegI=T DoRafI=F ISym2E= 0.
 FoFCou: FMM=F IPFlag=           0 FMFlag=      100000 FMFlg1=           0
         NFxFlg=           0 DoJE=F BraDBF=F KetDBF=F FulRan=T
         wScrn=  0.000000 ICntrl=       0 IOpCl=  0 I1Cent=           0 NGrid=           0
         NMat0=    1 NMatS0=      1 NMatT0=    0 NMatD0=    1 NMtDS0=    0 NMtDT0=    0
 Symmetry not used in FoFCou.
 Inv3:  Mode=1 IEnd=    17773068.
 Iteration    1 A*A^-1 deviation from unit magnitude is 7.55D-15 for   1359.
 Iteration    1 A*A^-1 deviation from orthogonality  is 5.11D-15 for   2315    500.
 Iteration    1 A^-1*A deviation from unit magnitude is 7.55D-15 for   1359.
 Iteration    1 A^-1*A deviation from orthogonality  is 2.99D-15 for   1515    770.
 E= -784.668325042742    
 DIIS: error= 2.38D-02 at cycle   1 NSaved=   1.
 NSaved= 1 IEnMin= 1 EnMin= -784.668325042742     IErMin= 1 ErrMin= 2.38D-02
 ErrMax= 2.38D-02  0.00D+00 EMaxC= 1.00D-01 BMatC= 4.60D-01 BMatP= 4.60D-01
 IDIUse=3 WtCom= 7.62D-01 WtEn= 2.38D-01
 Coeff-Com:  0.100D+01
 Coeff-En:   0.100D+01
 Coeff:      0.100D+01
 Gap=     0.150 Goal=   None    Shift=    0.000
 GapD=    0.150 DampG=1.000 DampE=0.500 DampFc=0.5000 IDamp=-1.
 Damping current iteration by 5.00D-01
 RMSDP=4.54D-03 MaxDP=2.10D-01              OVMax= 2.33D-01

 Cycle   2  Pass 1  IDiag  1:
 RMSU=  2.25D-03    CP:  9.83D-01
 E= -784.804711076293     Delta-E=       -0.136386033551 Rises=F Damp=T
 DIIS: error= 1.09D-02 at cycle   2 NSaved=   2.
 NSaved= 2 IEnMin= 2 EnMin= -784.804711076293     IErMin= 2 ErrMin= 1.09D-02
 ErrMax= 1.09D-02  0.00D+00 EMaxC= 1.00D-01 BMatC= 6.10D-02 BMatP= 4.60D-01
 IDIUse=3 WtCom= 8.91D-01 WtEn= 1.09D-01
 Coeff-Com:  0.203D+00 0.797D+00
 Coeff-En:   0.307D+00 0.693D+00
 Coeff:      0.214D+00 0.786D+00
 Gap=     0.148 Goal=   None    Shift=    0.000
 RMSDP=1.31D-03 MaxDP=5.96D-02 DE=-1.36D-01 OVMax= 2.08D-01

 Cycle   3  Pass 1  IDiag  1:
 RMSU=  1.24D-03    CP:  9.77D-01  8.08D-01
 E= -785.055678771322     Delta-E=       -0.250967695029 Rises=F Damp=F
 DIIS: error= 1.07D-02 at cycle   3 NSaved=   3.
 NSaved= 3 IEnMin= 3 EnMin= -785.055678771322     IErMin= 3 ErrMin= 1.07D-02
 ErrMax= 1.07D-02  0.00D+00 EMaxC= 1.00D-01 BMatC= 5.51D-02 BMatP= 6.10D-02
 IDIUse=3 WtCom= 8.93D-01 WtEn= 1.07D-01
 Coeff-Com:  0.699D-01 0.484D+00 0.446D+00
 Coeff-En:   0.000D+00 0.000D+00 0.100D+01
 Coeff:      0.624D-01 0.432D+00 0.506D+00
 Gap=     0.147 Goal=   None    Shift=    0.000
 RMSDP=8.37D-04 MaxDP=4.88D-02 DE=-2.51D-01 OVMax= 7.72D-02

 Cycle   4  Pass 1  IDiag  1:
 RMSU=  5.25D-04    CP:  9.79D-01  8.68D-01  4.85D-01
 E= -785.097827020293     Delta-E=       -0.042148248971 Rises=F Damp=F
 DIIS: error= 4.00D-03 at cycle   4 NSaved=   4.
 NSaved= 4 IEnMin= 4 EnMin= -785.097827020293     IErMin= 4 ErrMin= 4.00D-03
 ErrMax= 4.00D-03  0.00D+00 EMaxC= 1.00D-01 BMatC= 8.00D-03 BMatP= 5.51D-02
 IDIUse=3 WtCom= 9.60D-01 WtEn= 4.00D-02
 Coeff-Com:  0.144D-01 0.107D+00 0.292D+00 0.586D+00
 Coeff-En:   0.000D+00 0.000D+00 0.132D+00 0.868D+00
 Coeff:      0.138D-01 0.103D+00 0.286D+00 0.598D+00
 Gap=     0.145 Goal=   None    Shift=    0.000
 RMSDP=2.54D-04 MaxDP=1.59D-02 DE=-4.21D-02 OVMax= 2.46D-02

 Cycle   5  Pass 1  IDiag  1:
 RMSU=  1.14D-04    CP:  9.79D-01  8.43D-01  6.02D-01  6.82D-01
 E= -785.104127153743     Delta-E=       -0.006300133450 Rises=F Damp=F
 DIIS: error= 1.09D-03 at cycle   5 NSaved=   5.
 NSaved= 5 IEnMin= 5 EnMin= -785.104127153743     IErMin= 5 ErrMin= 1.09D-03
 ErrMax= 1.09D-03  0.00D+00 EMaxC= 1.00D-01 BMatC= 4.18D-04 BMatP= 8.00D-03
 IDIUse=3 WtCom= 9.89D-01 WtEn= 1.09D-02
 Coeff-Com:  0.212D-02 0.154D-01 0.108D+00 0.314D+00 0.560D+00
 Coeff-En:   0.000D+00 0.000D+00 0.000D+00 0.000D+00 0.100D+01
 Coeff:      0.210D-02 0.152D-01 0.107D+00 0.310D+00 0.565D+00
 Gap=     0.145 Goal=   None    Shift=    0.000
 RMSDP=6.40D-05 MaxDP=3.23D-03 DE=-6.30D-03 OVMax= 6.24D-03

 Cycle   6  Pass 1  IDiag  1:
 RMSU=  3.88D-05    CP:  9.79D-01  8.47D-01  6.01D-01  7.09D-01  5.78D-01
 E= -785.104444423271     Delta-E=       -0.000317269527 Rises=F Damp=F
 DIIS: error= 3.29D-04 at cycle   6 NSaved=   6.
 NSaved= 6 IEnMin= 6 EnMin= -785.104444423271     IErMin= 6 ErrMin= 3.29D-04
 ErrMax= 3.29D-04  0.00D+00 EMaxC= 1.00D-01 BMatC= 4.73D-05 BMatP= 4.18D-04
 IDIUse=3 WtCom= 9.97D-01 WtEn= 3.29D-03
 Coeff-Com: -0.271D-04-0.289D-03 0.355D-01 0.122D+00 0.322D+00 0.522D+00
 Coeff-En:   0.000D+00 0.000D+00 0.000D+00 0.000D+00 0.394D-01 0.961D+00
 Coeff:     -0.270D-04-0.288D-03 0.354D-01 0.121D+00 0.321D+00 0.523D+00
 Gap=     0.145 Goal=   None    Shift=    0.000
 RMSDP=2.38D-05 MaxDP=1.07D-03 DE=-3.17D-04 OVMax= 3.63D-03

 Cycle   7  Pass 1  IDiag  1:
 RMSU=  1.41D-05    CP:  9.79D-01  8.48D-01  6.01D-01  7.15D-01  6.32D-01
                    CP:  5.40D-01
 E= -785.104482297235     Delta-E=       -0.000037873965 Rises=F Damp=F
 DIIS: error= 7.61D-05 at cycle   7 NSaved=   7.
 NSaved= 7 IEnMin= 7 EnMin= -785.104482297235     IErMin= 7 ErrMin= 7.61D-05
 ErrMax= 7.61D-05  0.00D+00 EMaxC= 1.00D-01 BMatC= 4.63D-06 BMatP= 4.73D-05
 IDIUse=1 WtCom= 1.00D+00 WtEn= 0.00D+00
 Coeff-Com: -0.182D-03-0.195D-02 0.998D-02 0.393D-01 0.136D+00 0.307D+00
 Coeff-Com:  0.510D+00
 Coeff:     -0.182D-03-0.195D-02 0.998D-02 0.393D-01 0.136D+00 0.307D+00
 Coeff:      0.510D+00
 Gap=     0.145 Goal=   None    Shift=    0.000
 RMSDP=7.42D-06 MaxDP=3.23D-04 DE=-3.79D-05 OVMax= 1.13D-03

 Cycle   8  Pass 1  IDiag  1:
 RMSU=  3.65D-06    CP:  9.79D-01  8.47D-01  6.01D-01  7.15D-01  6.31D-01
                    CP:  6.26D-01  6.34D-01
 E= -785.104486661568     Delta-E=       -0.000004364333 Rises=F Damp=F
 DIIS: error= 2.06D-05 at cycle   8 NSaved=   8.
 NSaved= 8 IEnMin= 8 EnMin= -785.104486661568     IErMin= 8 ErrMin= 2.06D-05
 ErrMax= 2.06D-05  0.00D+00 EMaxC= 1.00D-01 BMatC= 2.55D-07 BMatP= 4.63D-06
 IDIUse=1 WtCom= 1.00D+00 WtEn= 0.00D+00
 Coeff-Com: -0.425D-04-0.898D-03 0.262D-02 0.107D-01 0.462D-01 0.118D+00
 Coeff-Com:  0.253D+00 0.570D+00
 Coeff:     -0.425D-04-0.898D-03 0.262D-02 0.107D-01 0.462D-01 0.118D+00
 Coeff:      0.253D+00 0.570D+00
 Gap=     0.145 Goal=   None    Shift=    0.000
 RMSDP=2.03D-06 MaxDP=9.28D-05 DE=-4.36D-06 OVMax= 3.51D-04

 Cycle   9  Pass 1  IDiag  1:
 RMSU=  1.38D-06    CP:  9.79D-01  8.47D-01  6.01D-01  7.15D-01  6.37D-01
                    CP:  6.18D-01  6.68D-01  6.76D-01
 E= -785.104486864623     Delta-E=       -0.000000203055 Rises=F Damp=F
 DIIS: error= 1.19D-05 at cycle   9 NSaved=   9.
 NSaved= 9 IEnMin= 9 EnMin= -785.104486864623     IErMin= 9 ErrMin= 1.19D-05
 ErrMax= 1.19D-05  0.00D+00 EMaxC= 1.00D-01 BMatC= 5.10D-08 BMatP= 2.55D-07
 IDIUse=1 WtCom= 1.00D+00 WtEn= 0.00D+00
 Coeff-Com:  0.520D-05-0.261D-03 0.917D-04 0.284D-03 0.711D-02 0.223D-01
 Coeff-Com:  0.634D-01 0.340D+00 0.567D+00
 Coeff:      0.520D-05-0.261D-03 0.917D-04 0.284D-03 0.711D-02 0.223D-01
 Coeff:      0.634D-01 0.340D+00 0.567D+00
 Gap=     0.145 Goal=   None    Shift=    0.000
 RMSDP=6.95D-07 MaxDP=3.44D-05 DE=-2.03D-07 OVMax= 8.10D-05

 Cycle  10  Pass 1  IDiag  1:
 RMSU=  4.33D-07    CP:  9.79D-01  8.47D-01  6.02D-01  7.15D-01  6.36D-01
                    CP:  6.22D-01  6.73D-01  7.61D-01  7.17D-01
 E= -785.104486908514     Delta-E=       -0.000000043891 Rises=F Damp=F
 DIIS: error= 1.63D-06 at cycle  10 NSaved=  10.
 NSaved=10 IEnMin=10 EnMin= -785.104486908514     IErMin=10 ErrMin= 1.63D-06
 ErrMax= 1.63D-06  0.00D+00 EMaxC= 1.00D-01 BMatC= 2.29D-09 BMatP= 5.10D-08
 IDIUse=1 WtCom= 1.00D+00 WtEn= 0.00D+00
 Coeff-Com:  0.593D-05-0.547D-04-0.152D-03-0.718D-03-0.169D-03 0.143D-02
 Coeff-Com:  0.735D-02 0.117D+00 0.253D+00 0.622D+00
 Coeff:      0.593D-05-0.547D-04-0.152D-03-0.718D-03-0.169D-03 0.143D-02
 Coeff:      0.735D-02 0.117D+00 0.253D+00 0.622D+00
 Gap=     0.145 Goal=   None    Shift=    0.000
 RMSDP=2.03D-07 MaxDP=7.82D-06 DE=-4.39D-08 OVMax= 1.96D-05

 Cycle  11  Pass 1  IDiag  1:
 RMSU=  1.47D-07    CP:  9.79D-01  8.47D-01  6.02D-01  7.15D-01  6.36D-01
                    CP:  6.22D-01  6.74D-01  7.75D-01  7.56D-01  7.63D-01
 E= -785.104486910285     Delta-E=       -0.000000001771 Rises=F Damp=F
 DIIS: error= 1.02D-06 at cycle  11 NSaved=  11.
 NSaved=11 IEnMin=11 EnMin= -785.104486910285     IErMin=11 ErrMin= 1.02D-06
 ErrMax= 1.02D-06  0.00D+00 EMaxC= 1.00D-01 BMatC= 6.45D-10 BMatP= 2.29D-09
 IDIUse=1 WtCom= 1.00D+00 WtEn= 0.00D+00
 Coeff-Com:  0.329D-05 0.352D-05-0.104D-03-0.491D-03-0.104D-02-0.195D-02
 Coeff-Com: -0.419D-02 0.306D-01 0.768D-01 0.376D+00 0.524D+00
 Coeff:      0.329D-05 0.352D-05-0.104D-03-0.491D-03-0.104D-02-0.195D-02
 Coeff:     -0.419D-02 0.306D-01 0.768D-01 0.376D+00 0.524D+00
 Gap=     0.145 Goal=   None    Shift=    0.000
 RMSDP=1.03D-07 MaxDP=4.30D-06 DE=-1.77D-09 OVMax= 1.48D-05

 Cycle  12  Pass 1  IDiag  1:
 RMSU=  6.00D-08    CP:  9.79D-01  8.47D-01  6.02D-01  7.15D-01  6.37D-01
                    CP:  6.22D-01  6.74D-01  7.80D-01  7.76D-01  8.48D-01
                    CP:  5.58D-01
 E= -785.104486910839     Delta-E=       -0.000000000555 Rises=F Damp=F
 DIIS: error= 4.40D-07 at cycle  12 NSaved=  12.
 NSaved=12 IEnMin=12 EnMin= -785.104486910839     IErMin=12 ErrMin= 4.40D-07
 ErrMax= 4.40D-07  0.00D+00 EMaxC= 1.00D-01 BMatC= 8.53D-11 BMatP= 6.45D-10
 IDIUse=1 WtCom= 1.00D+00 WtEn= 0.00D+00
 Coeff-Com:  0.576D-06 0.917D-05-0.330D-04-0.163D-03-0.525D-03-0.116D-02
 Coeff-Com: -0.345D-02 0.181D-02 0.542D-02 0.118D+00 0.312D+00 0.568D+00
 Coeff:      0.576D-06 0.917D-05-0.330D-04-0.163D-03-0.525D-03-0.116D-02
 Coeff:     -0.345D-02 0.181D-02 0.542D-02 0.118D+00 0.312D+00 0.568D+00
 Gap=     0.145 Goal=   None    Shift=    0.000
 RMSDP=3.62D-08 MaxDP=1.60D-06 DE=-5.55D-10 OVMax= 5.30D-06

 Cycle  13  Pass 1  IDiag  1:
 RMSU=  2.06D-08    CP:  9.79D-01  8.47D-01  6.02D-01  7.15D-01  6.37D-01
                    CP:  6.22D-01  6.74D-01  7.81D-01  7.75D-01  8.58D-01
                    CP:  6.85D-01  6.75D-01
 E= -785.104486910929     Delta-E=       -0.000000000090 Rises=F Damp=F
 DIIS: error= 1.23D-07 at cycle  13 NSaved=  13.
 NSaved=13 IEnMin=13 EnMin= -785.104486910929     IErMin=13 ErrMin= 1.23D-07
 ErrMax= 1.23D-07  0.00D+00 EMaxC= 1.00D-01 BMatC= 8.14D-12 BMatP= 8.53D-11
 IDIUse=1 WtCom= 1.00D+00 WtEn= 0.00D+00
 Coeff-Com: -0.134D-06 0.436D-05-0.673D-05-0.351D-04-0.175D-03-0.387D-03
 Coeff-Com: -0.146D-02-0.207D-02-0.659D-02 0.198D-01 0.115D+00 0.314D+00
 Coeff-Com:  0.562D+00
 Coeff:     -0.134D-06 0.436D-05-0.673D-05-0.351D-04-0.175D-03-0.387D-03
 Coeff:     -0.146D-02-0.207D-02-0.659D-02 0.198D-01 0.115D+00 0.314D+00
 Coeff:      0.562D+00
 Gap=     0.145 Goal=   None    Shift=    0.000
 RMSDP=1.13D-08 MaxDP=4.14D-07 DE=-9.00D-11 OVMax= 1.18D-06

 Cycle  14  Pass 1  IDiag  1:
 RMSU=  7.43D-09    CP:  9.79D-01  8.47D-01  6.02D-01  7.15D-01  6.37D-01
                    CP:  6.23D-01  6.74D-01  7.82D-01  7.76D-01  8.64D-01
                    CP:  7.02D-01  7.28D-01  7.21D-01
 E= -785.104486910937     Delta-E=       -0.000000000008 Rises=F Damp=F
 DIIS: error= 5.15D-08 at cycle  14 NSaved=  14.
 NSaved=14 IEnMin=14 EnMin= -785.104486910937     IErMin=14 ErrMin= 5.15D-08
 ErrMax= 5.15D-08  0.00D+00 EMaxC= 1.00D-01 BMatC= 1.10D-12 BMatP= 8.14D-12
 IDIUse=1 WtCom= 1.00D+00 WtEn= 0.00D+00
 Coeff-Com: -0.175D-06 0.149D-05 0.126D-06-0.570D-06-0.420D-04-0.828D-04
 Coeff-Com: -0.451D-03-0.151D-02-0.507D-02-0.448D-02 0.276D-01 0.115D+00
 Coeff-Com:  0.321D+00 0.548D+00
 Coeff:     -0.175D-06 0.149D-05 0.126D-06-0.570D-06-0.420D-04-0.828D-04
 Coeff:     -0.451D-03-0.151D-02-0.507D-02-0.448D-02 0.276D-01 0.115D+00
 Coeff:      0.321D+00 0.548D+00
 Gap=     0.145 Goal=   None    Shift=    0.000
 RMSDP=4.34D-09 MaxDP=2.16D-07 DE=-7.50D-12 OVMax= 6.73D-07

 Error on total polarization charges =  0.00644
 SCF Done:  E(RB3LYP) =  -785.104486911     A.U. after   14 cycles
            NFock= 14  Conv=0.43D-08     -V/T= 2.0065
 KE= 7.800108963656D+02 PE=-4.128121431608D+03 EE= 1.415467165660D+03
 Leave Link  502 at Mon Mar 20 17:41:14 2017, MaxMem=   402653184 cpu:      1109.6
 (Enter /n/sw/g09_D.01/g09/l801.exe)
 DoSCS=F DFT=T ScalE2(SS,OS)=  1.000000  1.000000
 Range of M.O.s used for correlation:     1   309
 NBasis=   309 NAE=    61 NBE=    61 NFC=     0 NFV=     0
 NROrb=    309 NOA=    61 NOB=    61 NVA=   248 NVB=   248
 Leave Link  801 at Mon Mar 20 17:41:14 2017, MaxMem=   402653184 cpu:         0.2
 (Enter /n/sw/g09_D.01/g09/l1101.exe)
 Using compressed storage, NAtomX=    33.
 Will process     34 centers per pass.
 R6Disp: Adding Grimme-D3(BJ) dispersion energy 1st derivatives to the gradient.
 Leave Link 1101 at Mon Mar 20 17:41:15 2017, MaxMem=   402653184 cpu:         5.4
 (Enter /n/sw/g09_D.01/g09/l1102.exe)
 Symmetrizing basis deriv contribution to polar:
 IMax=3 JMax=2 DiffMx= 0.00D+00
 Leave Link 1102 at Mon Mar 20 17:41:15 2017, MaxMem=   402653184 cpu:         0.8
 (Enter /n/sw/g09_D.01/g09/l1110.exe)
 Forming Gx(P) for the SCF density, NAtomX=    33.
 Integral derivatives from FoFJK, PRISM(SPDF).
 Do as many integral derivatives as possible in FoFJK.
 G2DrvN: MDV=     402652816.
 G2DrvN: will do    34 centers at a time, making    1 passes.
 Calling FoFCou, ICntrl=  3107 FMM=F I1Cent=   0 AccDes= 0.00D+00.
 FoFJK:  IHMeth= 1 ICntrl=    3107 DoSepK=F KAlg= 0 I1Cent=   0 FoldK=F
 IRaf=         0 NMat=   1 IRICut=       1 DoRegI=T DoRafI=F ISym2E= 0.
 FoFCou: FMM=F IPFlag=           0 FMFlag=      100000 FMFlg1=           0
         NFxFlg=           0 DoJE=F BraDBF=F KetDBF=F FulRan=T
         wScrn=  0.000000 ICntrl=    3107 IOpCl=  0 I1Cent=           0 NGrid=           0
         NMat0=    1 NMatS0=      1 NMatT0=    0 NMatD0=    1 NMtDS0=    0 NMtDT0=    0
 Symmetry not used in FoFCou.
 NEqPCM:  Using equilibrium solvation (IEInf=0, Eps=   2.2099, EpsInf=   2.0232)
 G2PCM: DoFxE=T DoFxN=T DoGrad=T DoDP/DQ/DG/TGxP=FFFF NFrqRd=   0 IEInf=0 SqF1=F DoCFld=F IF1Alg=4.
 GePol: Maximum number of non-zero 1st derivatives   =     234
 End of G2Drv F.D. properties file   721 does not exist.
 End of G2Drv F.D. properties file   722 does not exist.
 End of G2Drv F.D. properties file   788 does not exist.
 Leave Link 1110 at Mon Mar 20 17:44:09 2017, MaxMem=   402653184 cpu:      1387.4
 (Enter /n/sw/g09_D.01/g09/l1002.exe)
 Minotr:  Closed shell wavefunction.
          IDoAtm=111111111111111111111111111111111
 NEqPCM:  Using equilibrium solvation (IEInf=0, Eps=   2.2099, EpsInf=   2.0232)
          Direct CPHF calculation.
          Differentiating once with respect to nuclear coordinates.
          Requested convergence is 1.0D-08 RMS, and 1.0D-07 maximum.
          Secondary convergence is 1.0D-12 RMS, and 1.0D-12 maximum.
          NewPWx=T KeepS1=F KeepF1=F KeepIn=T MapXYZ=F SortEE=F KeepMc=T.
          MDV=     402652541 using IRadAn=       2.
 Generate precomputed XC quadrature information.
          Solving linear equations simultaneously, MaxMat=       0.
 FoFJK:  IHMeth= 1 ICntrl=       0 DoSepK=F KAlg= 0 I1Cent=   0 FoldK=F
 IRaf= 840000000 NMat= 102 IRICut=     255 DoRegI=T DoRafI=T ISym2E= 2.
 FoFCou: FMM=F IPFlag=           0 FMFlag=      100000 FMFlg1=           0
         NFxFlg=           0 DoJE=F BraDBF=F KetDBF=F FulRan=T
         wScrn=  0.000000 ICntrl=       0 IOpCl=  0 I1Cent=           0 NGrid=           0
         NMat0=  102 NMatS0=    102 NMatT0=    0 NMatD0=  102 NMtDS0=    0 NMtDT0=    0
 Integrals replicated using symmetry in FoFCou.
          There are   102 degrees of freedom in the 1st order CPHF.  IDoFFX=6 NUNeed=     0.
     96 vectors produced by pass  0 Test12= 1.51D-14 1.00D-09 XBig12= 1.80D-01 1.62D-01.
 AX will form    96 AO Fock derivatives at one time.
     96 vectors produced by pass  1 Test12= 1.51D-14 1.00D-09 XBig12= 3.34D-02 3.60D-02.
     96 vectors produced by pass  2 Test12= 1.51D-14 1.00D-09 XBig12= 2.41D-04 1.96D-03.
     96 vectors produced by pass  3 Test12= 1.51D-14 1.00D-09 XBig12= 8.53D-07 9.73D-05.
     96 vectors produced by pass  4 Test12= 1.51D-14 1.00D-09 XBig12= 1.20D-09 3.03D-06.
     78 vectors produced by pass  5 Test12= 1.51D-14 1.00D-09 XBig12= 1.05D-12 8.29D-08.
      6 vectors produced by pass  6 Test12= 1.51D-14 1.00D-09 XBig12= 8.51D-16 2.22D-09.
 InvSVY:  IOpt=1 It=  1 EMax= 8.33D-16
 Solved reduced A of dimension   564 with   102 vectors.
 End of Minotr F.D. properties file   721 does not exist.
 End of Minotr F.D. properties file   722 does not exist.
 End of Minotr F.D. properties file   788 does not exist.
 Leave Link 1002 at Mon Mar 20 17:51:19 2017, MaxMem=   402653184 cpu:      3441.7
 (Enter /n/sw/g09_D.01/g09/l601.exe)
 Copying SCF densities to generalized density rwf, IOpCl= 0 IROHF=0.

 **********************************************************************

            Population analysis using the SCF density.

 **********************************************************************

 Orbital symmetries:
       Occupied  (A) (A) (A) (A) (A) (A) (A) (A) (A) (A) (A) (A)
                 (A) (A) (A) (A) (A) (A) (A) (A) (A) (A) (A) (A)
                 (A) (A) (A) (A) (A) (A) (A) (A) (A) (A) (A) (A)
                 (A) (A) (A) (A) (A) (A) (A) (A) (A) (A) (A) (A)
                 (A) (A) (A) (A) (A) (A) (A) (A) (A) (A) (A) (A)
                 (A)
       Virtual   (A) (A) (A) (A) (A) (A) (A) (A) (A) (A) (A) (A)
                 (A) (A) (A) (A) (A) (A) (A) (A) (A) (A) (A) (A)
                 (A) (A) (A) (A) (A) (A) (A) (A) (A) (A) (A) (A)
                 (A) (A) (A) (A) (A) (A) (A) (A) (A) (A) (A) (A)
                 (A) (A) (A) (A) (A) (A) (A) (A) (A) (A) (A) (A)
                 (A) (A) (A) (A) (A) (A) (A) (A) (A) (A) (A) (A)
                 (A) (A) (A) (A) (A) (A) (A) (A) (A) (A) (A) (A)
                 (A) (A) (A) (A) (A) (A) (A) (A) (A) (A) (A) (A)
                 (A) (A) (A) (A) (A) (A) (A) (A) (A) (A) (A) (A)
                 (A) (A) (A) (A) (A) (A) (A) (A) (A) (A) (A) (A)
                 (A) (A) (A) (A) (A) (A) (A) (A) (A) (A) (A) (A)
                 (A) (A) (A) (A) (A) (A) (A) (A) (A) (A) (A) (A)
                 (A) (A) (A) (A) (A) (A) (A) (A) (A) (A) (A) (A)
                 (A) (A) (A) (A) (A) (A) (A) (A) (A) (A) (A) (A)
                 (A) (A) (A) (A) (A) (A) (A) (A) (A) (A) (A) (A)
                 (A) (A) (A) (A) (A) (A) (A) (A) (A) (A) (A) (A)
                 (A) (A) (A) (A) (A) (A) (A) (A) (A) (A) (A) (A)
                 (A) (A) (A) (A) (A) (A) (A) (A) (A) (A) (A) (A)
                 (A) (A) (A) (A) (A) (A) (A) (A) (A) (A) (A) (A)
                 (A) (A) (A) (A) (A) (A) (A) (A) (A) (A) (A) (A)
                 (A) (A) (A) (A) (A) (A) (A) (A)
 The electronic state is 1-A.
 Alpha  occ. eigenvalues --  -19.18845 -19.17498 -19.12833 -19.11455 -14.37842
 Alpha  occ. eigenvalues --  -10.34302 -10.30041 -10.24956 -10.24263 -10.23864
 Alpha  occ. eigenvalues --  -10.20383 -10.19820 -10.19715 -10.18657 -10.18406
 Alpha  occ. eigenvalues --  -10.17752  -1.11712  -1.09160  -1.02404  -1.00024
 Alpha  occ. eigenvalues --   -0.95471  -0.82156  -0.78882  -0.75743  -0.74949
 Alpha  occ. eigenvalues --   -0.71065  -0.65867  -0.65074  -0.61428  -0.59661
 Alpha  occ. eigenvalues --   -0.56482  -0.55807  -0.53780  -0.51241  -0.49249
 Alpha  occ. eigenvalues --   -0.48858  -0.48557  -0.47390  -0.46600  -0.44758
 Alpha  occ. eigenvalues --   -0.44695  -0.43076  -0.42605  -0.42299  -0.41307
 Alpha  occ. eigenvalues --   -0.39825  -0.39554  -0.38128  -0.37251  -0.37070
 Alpha  occ. eigenvalues --   -0.36749  -0.35845  -0.35138  -0.34353  -0.32404
 Alpha  occ. eigenvalues --   -0.30705  -0.29621  -0.28462  -0.26659  -0.24886
 Alpha  occ. eigenvalues --   -0.20585
 Alpha virt. eigenvalues --   -0.06066  -0.00788   0.04152   0.05135   0.06180
 Alpha virt. eigenvalues --    0.07548   0.07840   0.08766   0.09366   0.09910
 Alpha virt. eigenvalues --    0.10769   0.11585   0.12570   0.12712   0.13435
 Alpha virt. eigenvalues --    0.13824   0.14060   0.14257   0.14562   0.15661
 Alpha virt. eigenvalues --    0.16784   0.17242   0.18456   0.20218   0.22404
 Alpha virt. eigenvalues --    0.22813   0.25398   0.26853   0.27999   0.28544
 Alpha virt. eigenvalues --    0.31059   0.32029   0.32735   0.34247   0.36859
 Alpha virt. eigenvalues --    0.40126   0.41483   0.42004   0.43126   0.43549
 Alpha virt. eigenvalues --    0.43788   0.44627   0.45221   0.46612   0.46700
 Alpha virt. eigenvalues --    0.48490   0.48927   0.49219   0.49419   0.50700
 Alpha virt. eigenvalues --    0.51329   0.52116   0.53201   0.54414   0.55781
 Alpha virt. eigenvalues --    0.57300   0.58662   0.58820   0.59540   0.60223
 Alpha virt. eigenvalues --    0.62173   0.62316   0.63019   0.63659   0.63968
 Alpha virt. eigenvalues --    0.64619   0.65785   0.65936   0.66264   0.66834
 Alpha virt. eigenvalues --    0.67320   0.67862   0.68064   0.68425   0.69361
 Alpha virt. eigenvalues --    0.69752   0.71824   0.72725   0.72894   0.74319
 Alpha virt. eigenvalues --    0.75768   0.76115   0.76671   0.80405   0.80612
 Alpha virt. eigenvalues --    0.82404   0.84315   0.87428   0.88199   0.89497
 Alpha virt. eigenvalues --    0.90736   0.90834   0.91483   0.94258   0.96007
 Alpha virt. eigenvalues --    0.96661   0.98835   0.99848   1.00570   1.01540
 Alpha virt. eigenvalues --    1.02276   1.03065   1.06338   1.06478   1.07487
 Alpha virt. eigenvalues --    1.09436   1.10586   1.12409   1.13220   1.14301
 Alpha virt. eigenvalues --    1.14545   1.16053   1.18188   1.19722   1.21080
 Alpha virt. eigenvalues --    1.21784   1.22987   1.25053   1.26548   1.28310
 Alpha virt. eigenvalues --    1.29141   1.31040   1.32434   1.34106   1.35061
 Alpha virt. eigenvalues --    1.36420   1.38994   1.39675   1.42008   1.43055
 Alpha virt. eigenvalues --    1.44875   1.46326   1.47418   1.47619   1.50301
 Alpha virt. eigenvalues --    1.52094   1.53417   1.54852   1.56436   1.57820
 Alpha virt. eigenvalues --    1.58760   1.58959   1.59269   1.60222   1.60413
 Alpha virt. eigenvalues --    1.61449   1.61530   1.62922   1.63756   1.64033
 Alpha virt. eigenvalues --    1.64246   1.65784   1.66649   1.66927   1.67798
 Alpha virt. eigenvalues --    1.68238   1.69095   1.69170   1.70063   1.70919
 Alpha virt. eigenvalues --    1.72013   1.73185   1.74853   1.75664   1.76274
 Alpha virt. eigenvalues --    1.78159   1.78488   1.79917   1.82693   1.84070
 Alpha virt. eigenvalues --    1.84955   1.86653   1.88021   1.88993   1.89672
 Alpha virt. eigenvalues --    1.90808   1.92850   1.94204   1.95229   1.96541
 Alpha virt. eigenvalues --    1.98449   2.00334   2.01215   2.01681   2.02112
 Alpha virt. eigenvalues --    2.03653   2.07165   2.07458   2.07826   2.10114
 Alpha virt. eigenvalues --    2.12815   2.12902   2.13899   2.16564   2.19173
 Alpha virt. eigenvalues --    2.21744   2.22091   2.23032   2.24104   2.24944
 Alpha virt. eigenvalues --    2.26321   2.27590   2.30142   2.32970   2.35006
 Alpha virt. eigenvalues --    2.38211   2.39521   2.39965   2.41564   2.43443
 Alpha virt. eigenvalues --    2.45359   2.46072   2.46845   2.48452   2.49797
 Alpha virt. eigenvalues --    2.50865   2.55527   2.56886   2.58984   2.60681
 Alpha virt. eigenvalues --    2.62661   2.64045   2.65092   2.65968   2.68351
 Alpha virt. eigenvalues --    2.73799   2.75554   2.77598   2.78495   2.83789
 Alpha virt. eigenvalues --    2.87877   2.91280   2.92076   2.92519   2.96157
 Alpha virt. eigenvalues --    3.00342   3.06017   3.16121   3.16608   3.17609
 Alpha virt. eigenvalues --    3.18366   3.26417   3.40275   3.40672   3.50396
 Alpha virt. eigenvalues --    3.52590   3.55067   3.58065
          Condensed to atoms (all electrons):
               1          2          3          4          5          6
     1  C    4.686573   0.385672   0.574141  -0.003179   0.007224   0.489859
     2  H    0.385672   0.733100  -0.057345  -0.016865   0.009390  -0.037201
     3  C    0.574141  -0.057345   4.719367   0.357916   0.359778  -0.045437
     4  H   -0.003179  -0.016865   0.357916   0.685624  -0.048779   0.011629
     5  H    0.007224   0.009390   0.359778  -0.048779   0.667871  -0.031742
     6  C    0.489859  -0.037201  -0.045437   0.011629  -0.031742   4.824212
     7  H   -0.035913  -0.018318   0.009759  -0.000060  -0.000556   0.384963
     8  C   -0.032496   0.011509  -0.029146  -0.000471   0.010136   0.499972
     9  H   -0.023578  -0.000061   0.009263  -0.000401   0.005809  -0.031941
    10  N    0.004137  -0.000082   0.000395  -0.000018   0.000337  -0.045545
    11  H    0.000359   0.000022   0.000036  -0.000006   0.000080   0.008126
    12  C    0.000311  -0.000005   0.000027   0.000000  -0.000002  -0.009097
    13  O    0.001034  -0.000017  -0.000005   0.000000   0.000000   0.005794
    14  O    0.000002   0.000000   0.000000   0.000000   0.000000   0.000394
    15  C   -0.034676  -0.000397  -0.033790   0.003748  -0.018905  -0.000439
    16  H   -0.000836  -0.000050   0.001276  -0.000141  -0.000443  -0.004712
    17  C   -0.020847   0.001016   0.169516  -0.003888  -0.008669  -0.021895
    18  H   -0.002681   0.002070  -0.014586  -0.003619   0.005167  -0.002176
    19  H   -0.000850  -0.000337  -0.010064  -0.000495  -0.008562   0.001850
    20  C    0.000304   0.000008  -0.003060   0.000099   0.001687  -0.000758
    21  O    0.000026   0.000000   0.000050   0.000000   0.000009   0.000524
    22  O    0.000090  -0.000003  -0.003335  -0.000059   0.011077  -0.000198
    23  C    0.000008   0.000000   0.000135   0.000002  -0.000732  -0.000010
    24  H    0.000001   0.000000  -0.000018   0.000000   0.000140  -0.000003
    25  H   -0.000007   0.000000   0.000007  -0.000001  -0.000127   0.000044
    26  C   -0.000001   0.000000   0.000000   0.000000   0.000000  -0.000049
    27  H    0.000000   0.000000   0.000000   0.000000   0.000000  -0.000015
    28  H    0.000000   0.000000   0.000000   0.000000   0.000000  -0.000002
    29  H    0.000000   0.000000   0.000000   0.000000   0.000000   0.000004
    30  C    0.000000   0.000000  -0.000015   0.000000  -0.000035   0.000000
    31  H    0.000000   0.000000  -0.000001   0.000000   0.000010   0.000000
    32  H   -0.000001   0.000000  -0.000008   0.000001  -0.000051   0.000000
    33  H    0.000002   0.000000  -0.000088  -0.000009   0.001054  -0.000002
               7          8          9         10         11         12
     1  C   -0.035913  -0.032496  -0.023578   0.004137   0.000359   0.000311
     2  H   -0.018318   0.011509  -0.000061  -0.000082   0.000022  -0.000005
     3  C    0.009759  -0.029146   0.009263   0.000395   0.000036   0.000027
     4  H   -0.000060  -0.000471  -0.000401  -0.000018  -0.000006   0.000000
     5  H   -0.000556   0.010136   0.005809   0.000337   0.000080  -0.000002
     6  C    0.384963   0.499972  -0.031941  -0.045545   0.008126  -0.009097
     7  H    0.687151  -0.050268   0.007191  -0.010079  -0.000565   0.000713
     8  C   -0.050268   4.773174   0.371506   0.435188  -0.021103  -0.062204
     9  H    0.007191   0.371506   0.678357  -0.022270  -0.013772   0.005509
    10  N   -0.010079   0.435188  -0.022270   6.113099   0.345616   0.398767
    11  H   -0.000565  -0.021103  -0.013772   0.345616   0.549596  -0.026258
    12  C    0.000713  -0.062204   0.005509   0.398767  -0.026258   4.332816
    13  O    0.029061  -0.015919  -0.000252  -0.055314   0.002869   0.697857
    14  O    0.000391   0.000886  -0.000206  -0.061111   0.012185   0.399039
    15  C    0.000632   0.080022  -0.018395  -0.012082  -0.002985  -0.000321
    16  H    0.000640   0.001413   0.002889   0.000068   0.000117   0.000739
    17  C   -0.000157  -0.011029  -0.007239   0.000958  -0.000002   0.000061
    18  H   -0.000170   0.001117  -0.000072  -0.000017   0.000008  -0.000006
    19  H    0.000048   0.000273   0.000048  -0.000051  -0.000016  -0.000001
    20  C    0.000004   0.006533  -0.000874  -0.006668  -0.003642   0.000079
    21  O   -0.000003  -0.003856  -0.004036  -0.006543   0.038290   0.000264
    22  O   -0.000004  -0.005900   0.010947   0.000141  -0.000171   0.000002
    23  C    0.000000  -0.000180   0.000338  -0.000022   0.000103  -0.000007
    24  H    0.000000  -0.000090   0.000260   0.000017  -0.000152   0.000000
    25  H    0.000001   0.000908  -0.001709  -0.000141   0.000947  -0.000009
    26  C   -0.000005  -0.000107   0.000018   0.005018  -0.000532  -0.050501
    27  H   -0.000014   0.000039   0.000002   0.000237   0.000113  -0.001139
    28  H   -0.000001   0.000012  -0.000001  -0.000034  -0.000237   0.003963
    29  H   -0.000018  -0.000030  -0.000001   0.000171   0.000211  -0.002040
    30  C    0.000000   0.000012  -0.000188  -0.000001   0.000009   0.000000
    31  H    0.000000   0.000000  -0.000001   0.000000  -0.000001   0.000000
    32  H    0.000000   0.000004  -0.000030   0.000000   0.000001   0.000000
    33  H    0.000000  -0.000024   0.000153   0.000001  -0.000004   0.000000
              13         14         15         16         17         18
     1  C    0.001034   0.000002  -0.034676  -0.000836  -0.020847  -0.002681
     2  H   -0.000017   0.000000  -0.000397  -0.000050   0.001016   0.002070
     3  C   -0.000005   0.000000  -0.033790   0.001276   0.169516  -0.014586
     4  H    0.000000   0.000000   0.003748  -0.000141  -0.003888  -0.003619
     5  H    0.000000   0.000000  -0.018905  -0.000443  -0.008669   0.005167
     6  C    0.005794   0.000394  -0.000439  -0.004712  -0.021895  -0.002176
     7  H    0.029061   0.000391   0.000632   0.000640  -0.000157  -0.000170
     8  C   -0.015919   0.000886   0.080022   0.001413  -0.011029   0.001117
     9  H   -0.000252  -0.000206  -0.018395   0.002889  -0.007239  -0.000072
    10  N   -0.055314  -0.061111  -0.012082   0.000068   0.000958  -0.000017
    11  H    0.002869   0.012185  -0.002985   0.000117  -0.000002   0.000008
    12  C    0.697857   0.399039  -0.000321   0.000739   0.000061  -0.000006
    13  O    7.664338  -0.055469   0.000027   0.000026  -0.000002   0.000000
    14  O   -0.055469   7.738964   0.000027  -0.000092   0.000000   0.000000
    15  C    0.000027   0.000027   4.930360   0.377167   0.501471   0.002458
    16  H    0.000026  -0.000092   0.377167   0.700478  -0.037747  -0.015255
    17  C   -0.000002   0.000000   0.501471  -0.037747   4.680992   0.359154
    18  H    0.000000   0.000000   0.002458  -0.015255   0.359154   0.675476
    19  H    0.000000   0.000000  -0.009299   0.008375   0.369421  -0.046026
    20  C   -0.000002  -0.000037   0.449571  -0.033108  -0.054863   0.007909
    21  O   -0.000001  -0.000081  -0.049879   0.003171   0.005221  -0.000123
    22  O    0.000000   0.000000  -0.075319   0.004033   0.007123   0.000193
    23  C    0.000000   0.000000   0.008802  -0.000155  -0.000980  -0.000002
    24  H    0.000000   0.000000   0.000530   0.000010   0.000042   0.000007
    25  H    0.000000  -0.000001   0.000506  -0.000063   0.000055   0.000004
    26  C    0.000489   0.314932   0.000001   0.000000   0.000000   0.000000
    27  H    0.006824  -0.028958  -0.000002   0.000010   0.000000   0.000000
    28  H    0.000931  -0.017206   0.000000   0.000000   0.000000   0.000000
    29  H    0.007484  -0.028978   0.000000  -0.000001   0.000000   0.000000
    30  C    0.000000   0.000000  -0.000195   0.000005  -0.000159   0.000002
    31  H    0.000000   0.000000   0.000016  -0.000001   0.000002   0.000000
    32  H    0.000000   0.000000  -0.000105   0.000000  -0.000023   0.000000
    33  H    0.000000   0.000000  -0.000093   0.000002   0.000013   0.000001
              19         20         21         22         23         24
     1  C   -0.000850   0.000304   0.000026   0.000090   0.000008   0.000001
     2  H   -0.000337   0.000008   0.000000  -0.000003   0.000000   0.000000
     3  C   -0.010064  -0.003060   0.000050  -0.003335   0.000135  -0.000018
     4  H   -0.000495   0.000099   0.000000  -0.000059   0.000002   0.000000
     5  H   -0.008562   0.001687   0.000009   0.011077  -0.000732   0.000140
     6  C    0.001850  -0.000758   0.000524  -0.000198  -0.000010  -0.000003
     7  H    0.000048   0.000004  -0.000003  -0.000004   0.000000   0.000000
     8  C    0.000273   0.006533  -0.003856  -0.005900  -0.000180  -0.000090
     9  H    0.000048  -0.000874  -0.004036   0.010947   0.000338   0.000260
    10  N   -0.000051  -0.006668  -0.006543   0.000141  -0.000022   0.000017
    11  H   -0.000016  -0.003642   0.038290  -0.000171   0.000103  -0.000152
    12  C   -0.000001   0.000079   0.000264   0.000002  -0.000007   0.000000
    13  O    0.000000  -0.000002  -0.000001   0.000000   0.000000   0.000000
    14  O    0.000000  -0.000037  -0.000081   0.000000   0.000000   0.000000
    15  C   -0.009299   0.449571  -0.049879  -0.075319   0.008802   0.000530
    16  H    0.008375  -0.033108   0.003171   0.004033  -0.000155   0.000010
    17  C    0.369421  -0.054863   0.005221   0.007123  -0.000980   0.000042
    18  H   -0.046026   0.007909  -0.000123   0.000193  -0.000002   0.000007
    19  H    0.669755  -0.021702   0.000301   0.015605  -0.000733  -0.000050
    20  C   -0.021702   4.485129   0.647040   0.358034  -0.053449  -0.002206
    21  O    0.000301   0.647040   7.742381  -0.063256   0.005606   0.006277
    22  O    0.015605   0.358034  -0.063256   7.811568   0.299099  -0.028038
    23  C   -0.000733  -0.053449   0.005606   0.299099   4.482256   0.384919
    24  H   -0.000050  -0.002206   0.006277  -0.028038   0.384919   0.691577
    25  H    0.000192  -0.001039   0.008705  -0.031320   0.376725  -0.050747
    26  C    0.000000   0.000000  -0.000002   0.000000   0.000000   0.000000
    27  H    0.000000  -0.000001   0.000001   0.000000   0.000000   0.000000
    28  H    0.000000   0.000000   0.000001   0.000000   0.000000   0.000000
    29  H    0.000000   0.000000   0.000000   0.000000   0.000000   0.000000
    30  C   -0.000140   0.003846   0.001393  -0.033996   0.440063  -0.026909
    31  H    0.000003  -0.000044   0.000047   0.003218  -0.012807  -0.000691
    32  H    0.000419   0.000384  -0.000017   0.003444  -0.018562  -0.010940
    33  H    0.000001   0.000045  -0.000026   0.002437  -0.018134   0.009103
              25         26         27         28         29         30
     1  C   -0.000007  -0.000001   0.000000   0.000000   0.000000   0.000000
     2  H    0.000000   0.000000   0.000000   0.000000   0.000000   0.000000
     3  C    0.000007   0.000000   0.000000   0.000000   0.000000  -0.000015
     4  H   -0.000001   0.000000   0.000000   0.000000   0.000000   0.000000
     5  H   -0.000127   0.000000   0.000000   0.000000   0.000000  -0.000035
     6  C    0.000044  -0.000049  -0.000015  -0.000002   0.000004   0.000000
     7  H    0.000001  -0.000005  -0.000014  -0.000001  -0.000018   0.000000
     8  C    0.000908  -0.000107   0.000039   0.000012  -0.000030   0.000012
     9  H   -0.001709   0.000018   0.000002  -0.000001  -0.000001  -0.000188
    10  N   -0.000141   0.005018   0.000237  -0.000034   0.000171  -0.000001
    11  H    0.000947  -0.000532   0.000113  -0.000237   0.000211   0.000009
    12  C   -0.000009  -0.050501  -0.001139   0.003963  -0.002040   0.000000
    13  O    0.000000   0.000489   0.006824   0.000931   0.007484   0.000000
    14  O   -0.000001   0.314932  -0.028958  -0.017206  -0.028978   0.000000
    15  C    0.000506   0.000001  -0.000002   0.000000   0.000000  -0.000195
    16  H   -0.000063   0.000000   0.000010   0.000000  -0.000001   0.000005
    17  C    0.000055   0.000000   0.000000   0.000000   0.000000  -0.000159
    18  H    0.000004   0.000000   0.000000   0.000000   0.000000   0.000002
    19  H    0.000192   0.000000   0.000000   0.000000   0.000000  -0.000140
    20  C   -0.001039   0.000000  -0.000001   0.000000   0.000000   0.003846
    21  O    0.008705  -0.000002   0.000001   0.000001   0.000000   0.001393
    22  O   -0.031320   0.000000   0.000000   0.000000   0.000000  -0.033996
    23  C    0.376725   0.000000   0.000000   0.000000   0.000000   0.440063
    24  H   -0.050747   0.000000   0.000000   0.000000   0.000000  -0.026909
    25  H    0.708951   0.000000   0.000000   0.000000   0.000000  -0.027528
    26  C    0.000000   4.408096   0.397334   0.395669   0.397055   0.000000
[...]
 .00000432,-0.00008621,-0.00007969,-0.00008989,0.00002032,0.00007159,0.
 00004057,-0.00000385,-0.00001351,0.00000022,-0.00000003,-0.00000299,-0
 .00000635,-0.07519385,0.08218601,-0.00209456,0.00112223,0.00048141,0.0
 0101536,0.09637466,-0.00007467,0.00005507,0.00002455,0.00000004,-0.000
 00708,-0.00000166,0.00005805,0.00002211,-0.00005247,0.00000814,-0.0000
 0585,0.00001234,-0.00000067,-0.00000544,0.00000789,0.00004692,-0.00013
 958,-0.00003510,-0.00002766,0.00005418,0.00000554,-0.00030996,0.000201
 59,-0.00002420,-0.00000294,0.00000609,-0.00001026,0.00045102,0.0003152
 2,0.00017867,-0.00001822,-0.00004766,0.00000747,-0.00324521,-0.0002458
 4,-0.00117076,0.00187502,0.00048759,0.00062339,-0.00336402,0.00720768,
 -0.00054051,-0.00000621,0.00009200,-0.00000348,-0.00000581,-0.00000417
 ,0.00001302,0.00003366,-0.00004284,0.00004715,0.00000342,0.00000024,-0
 .00000577,0.00000656,0.00000065,-0.00001516,-0.00005763,-0.00014021,-0
 .00009510,-0.00000354,0.00007106,0.00000454,0.00006870,0.00004755,0.00
 006703,-0.00001498,-0.00004477,-0.00002681,0.00000135,0.00000804,0.000
 00055,-0.00000022,0.00000328,0.00000303,0.09562727,-0.29772707,0.01275
 254,0.00287161,-0.00916716,0.00214923,-0.09952074,0.31130895,0.0000412
 5,-0.00001171,-0.00000704,-0.00000284,0.00000600,0.00000190,-0.0000296
 4,-0.00000935,0.00002318,-0.00000272,0.00000543,-0.00000741,0.00000259
 ,0.00000217,-0.00000086,-0.00003534,0.00006254,0.00001499,0.00000377,-
 0.00000095,-0.00000238,0.00001594,-0.00028820,-0.00004382,-0.00005205,
 0.00004020,-0.00000468,-0.00067831,0.00073448,0.00004453,0.00003102,0.
 00006171,0.00000135,-0.00163675,-0.00205011,-0.00050477,0.00056763,0.0
 0033697,0.00083984,-0.00940024,0.01239896,-0.00221474,-0.00000195,-0.0
 0002454,-0.00000382,-0.00000206,-0.00000590,-0.00000504,-0.00001252,0.
 00001611,-0.00002249,-0.00000402,0.00000052,0.00000364,-0.00000281,-0.
 00000029,0.00000885,0.00005873,0.00002980,0.00004012,-0.00002772,-0.00
 000771,-0.00001438,-0.00004536,-0.00002183,-0.00003662,0.00000482,0.00
 002429,0.00002403,0.00000030,-0.00000290,-0.00000155,0.00000207,-0.000
 00124,-0.00000293,-0.00101866,0.00815099,-0.04941040,0.01011915,-0.025
 29967,0.00406149,0.00977576,-0.01257363,0.04690914,0.00018770,-0.00007
 714,0.00000131,-0.00000763,0.00002235,0.00000715,-0.00012556,-0.000044
 17,0.00009598,-0.00001173,0.00001564,-0.00003310,0.00000155,0.00001674
 ,-0.00001510,-0.00020796,0.00032774,0.00005925,0.00001201,-0.00000632,
 -0.00002117,0.00078384,-0.00069324,-0.00034334,-0.00008543,0.00003503,
 0.00006135,-0.00185695,0.00115474,-0.00121397,0.00040254,0.00013883,0.
 00034477,0.00324995,-0.01053570,0.00194270,0.00149511,0.00323142,0.000
 09268,-0.03582683,-0.01424916,0.01281817,-0.00000074,-0.00015538,0.000
 02156,0.00000536,-0.00000403,-0.00002475,-0.00005489,0.00007697,-0.000
 09759,-0.00001304,0.00000337,0.00001405,-0.00001390,0.00000059,0.00003
 257,0.00020727,0.00017082,0.00019359,-0.00008649,-0.00005723,-0.000014
 75,-0.00016940,-0.00007071,-0.00014646,0.00003371,0.00008820,0.0000581
 9,-0.00000053,-0.00001470,-0.00000366,0.00000189,-0.00000923,-0.000003
 15,-0.11254604,-0.07172552,0.08558340,0.00185957,-0.00020016,0.0014039
 4,0.00815262,0.00559855,-0.00766910,0.13462013,0.00004290,-0.00002999,
 -0.00005945,-0.00000193,0.00000888,0.00000143,-0.00003749,-0.00001367,
 0.00004928,-0.00000639,0.00000499,-0.00000553,0.00000261,0.00000301,-0
 .00000433,-0.00005336,0.00009174,0.00001342,0.00002942,-0.00006510,0.0
 0004401,0.00014174,-0.00014413,0.00000785,-0.00003499,0.00001587,-0.00
 000470,-0.00057447,-0.00010993,0.00024041,0.00002484,0.00007232,0.0000
 5523,0.00276263,0.00008439,-0.00045897,-0.00027091,0.00021104,0.000112
 21,-0.00451060,0.00096911,-0.00239295,0.00001199,-0.00004739,-0.000014
 65,0.00000146,0.00000002,-0.00001183,-0.00002993,0.00003096,-0.0000365
 3,-0.00000422,0.00000066,0.00000540,-0.00000463,-0.00000204,0.00001521
 ,0.00011734,0.00004015,0.00007311,-0.00006078,-0.00000642,-0.00000138,
 -0.00008948,-0.00003439,-0.00007271,0.00001711,0.00004305,0.00003350,0
 .00000080,-0.00000652,-0.00000279,0.00000161,-0.00000480,-0.00000137,-
 0.07784321,-0.13291587,0.10028717,0.00770753,0.00786636,-0.00946183,-0
 .01430585,-0.01230807,0.01842952,0.08696959,0.13624868,0.00005014,-0.0
 0004667,0.00002882,-0.00000017,0.00000596,-0.00000091,-0.00004941,-0.0
 0001569,0.00002919,-0.00000594,0.00000354,-0.00001103,0.00000039,0.000
 00530,-0.00000641,-0.00003435,0.00014309,0.00003502,0.00001142,-0.0000
 1426,-0.00004148,0.00029545,-0.00022465,-0.00014673,-0.00001960,0.0000
 0510,0.00002406,-0.00045096,-0.00006208,-0.00081052,0.00005444,0.00000
 687,0.00001747,0.00036421,0.00044378,0.00182217,-0.00145676,-0.0001318
 7,-0.00037344,-0.01170650,-0.00929006,0.01197138,-0.00001930,-0.000082
 50,0.00001367,-0.00000269,0.00000501,-0.00000653,-0.00001141,0.0000392
 7,-0.00003264,-0.00000555,0.00000084,0.00000398,-0.00000208,-0.0000001
 5,0.00000921,0.00000555,0.00011309,0.00005392,0.00002145,-0.00006289,0
 .00001755,-0.00001883,-0.00002162,-0.00002295,0.00000564,0.00002112,0.
 00000884,-0.00000137,-0.00000475,0.00000040,-0.00000043,-0.00000089,-0
 .00000147,0.09288722,0.10090401,-0.16770195,0.01360886,0.01644394,-0.0
 1625588,-0.00037941,-0.00134463,0.00031247,-0.09313933,-0.10683574,0.1
 7106448,-0.00006859,0.00006466,-0.00006519,-0.00000501,-0.00000021,0.0
 0000445,0.00007907,0.00008962,-0.00003620,-0.00000301,0.00001647,-0.00
 000068,0.00000247,-0.00004736,0.00002158,-0.00000868,-0.00003987,-0.00
 000776,0.00000083,0.00000253,0.00000710,-0.00008568,0.00007570,0.00009
 179,-0.00002471,0.00000159,0.00003166,0.00015966,-0.00004206,-0.000032
 42,-0.00000146,0.00002285,0.00007875,-0.00011764,-0.00001721,-0.000042
 82,0.00003288,0.00002785,0.00001170,0.00004705,-0.00003216,0.00000934,
 0.00007085,0.00028352,0.00008528,0.00002498,0.00010141,0.00005656,0.00
 017694,-0.00014076,0.00009543,-0.00001639,0.00002200,0.00000543,0.0000
 2488,0.00004623,0.00000132,-0.00081155,0.00046767,-0.00012488,0.000185
 43,-0.00053510,-0.00087223,-0.00587158,-0.00493058,-0.00692300,-0.1928
 1835,0.01331865,-0.05544378,-0.00057622,0.00020226,0.00062909,-0.02044
 526,0.00200100,-0.01352397,-0.00002163,-0.00000039,-0.00000574,0.00000
 258,0.00000049,0.00000088,0.00000219,-0.00000150,0.00000145,0.00000378
 ,0.00000217,0.00000046,0.51002256,0.00013857,-0.00011543,0.00016115,0.
 00001721,0.00000954,-0.00003389,-0.00016895,-0.00022300,0.00013450,0.0
 0001789,0.00000171,0.00000049,-0.00005228,0.00000298,-0.00006366,0.000
 01347,0.00009062,0.00004371,0.00000192,0.00000464,-0.00001885,0.000260
 65,-0.00017263,-0.00022429,0.00003448,0.00007278,-0.00008495,-0.000402
 77,0.00014667,0.00004513,0.00002659,-0.00003483,-0.00010464,0.00033270
 ,0.00001675,0.00010967,-0.00009220,-0.00006596,-0.00002095,-0.00012339
 ,0.00009820,-0.00003144,-0.00178838,-0.00042812,-0.00107517,-0.0001151
 1,-0.00056311,-0.00028211,-0.00024674,0.00055154,-0.00024331,0.0000137
 0,-0.00006913,0.00002942,0.00002816,0.00006106,0.00004334,0.00549356,-
 0.00684205,-0.00075477,-0.00050074,0.00315350,0.00094001,-0.03893308,-
 0.00761370,-0.02719030,0.02402685,-0.07618307,0.01765990,0.02263320,0.
 00118599,0.01065539,0.00117798,0.00036717,0.00182492,0.00005581,-0.000
 00277,0.00001440,-0.00000702,-0.00000277,-0.00000236,-0.00000757,0.000
 00444,-0.00000166,-0.00000982,-0.00000398,-0.00000208,0.00394862,0.574
 71255,0.00009341,-0.00006478,-0.00005332,-0.00002536,-0.00001557,0.000
 00615,-0.00009025,0.00005922,0.00013425,-0.00000378,-0.00000976,-0.000
 01561,0.00011385,0.00008792,-0.00004030,-0.00000289,0.00006820,0.00002
 559,-0.00000085,0.00000326,-0.00000301,0.00017785,-0.00011283,-0.00008
 379,0.00005182,-0.00006795,0.00001990,-0.00022869,0.00008134,0.0000429
 0,-0.00007029,-0.00008416,-0.00010920,0.00010942,-0.00001867,0.0000366
 2,-0.00002100,0.00001055,-0.00000267,-0.00004994,0.00006151,-0.0000082
 7,-0.00099157,0.00004514,-0.00044139,-0.00006148,-0.00025024,-0.000097
 74,-0.00008189,0.00009774,0.00001878,0.00001809,0.00000869,-0.00001944
 ,0.00002116,-0.00005914,0.00006002,0.00276571,-0.00365760,-0.00063622,
 -0.00074479,0.00108323,0.00134556,-0.02547016,-0.00771714,-0.01717367,
 -0.04986034,0.01147973,-0.10536753,-0.01905578,0.00045098,-0.00878328,
 0.01807893,-0.00034354,0.01172971,0.00001327,-0.00000184,0.00000263,-0
 .00000164,-0.00000007,0.00000048,-0.00000386,0.00000199,-0.00000177,-0
 .00000232,-0.00000138,-0.00000107,-0.03234424,0.00556224,0.55461514,0.
 00008176,-0.00006946,0.00006782,0.00000309,-0.00000128,-0.00001094,-0.
 00008615,-0.00008538,0.00007141,0.00000416,-0.00002082,-0.00000522,-0.
 00001380,0.00004165,-0.00002632,-0.00000467,0.00004726,0.00001289,0.00
 000172,-0.00000339,-0.00001024,0.00014471,-0.00008473,-0.00008869,0.00
 003057,0.00002580,-0.00003617,-0.00023899,0.00004888,0.00002155,0.0000
 4650,-0.00000755,-0.00007864,0.00022059,0.00000467,0.00006715,-0.00006
 486,-0.00003834,-0.00001613,-0.00008851,0.00006579,-0.00001780,-0.0005
 8874,-0.00024076,-0.00034333,-0.00003917,-0.00020708,-0.00008381,-0.00
 014944,0.00020977,-0.00011091,0.00001403,-0.00003082,0.00000176,-0.000
 01429,0.00001237,0.00001410,0.00237469,-0.00154684,0.00007090,-0.00048
 372,0.00061973,0.00018555,-0.00771673,-0.00070781,-0.00536451,-0.00104
 156,-0.02437197,-0.01221976,0.00091249,0.00045677,0.00001643,0.0005166
 3,-0.00004081,0.00094296,0.00004032,-0.00000238,0.00001015,-0.00000507
 ,-0.00000133,-0.00000132,-0.00000523,0.00000335,-0.00000244,-0.0000069
 2,-0.00000364,-0.00000141,-0.05327318,-0.03363338,-0.02367594,0.055914
 92,0.00007328,-0.00003900,-0.00000839,-0.00001152,-0.00000949,-0.00000
 714,-0.00005471,0.00000242,0.00007190,0.00000285,0.00000207,-0.0000104
 9,0.00003747,0.00001696,-0.00002904,-0.00002999,0.00004567,0.00001731,
 -0.00000003,-0.00000189,-0.00000630,0.00009406,-0.00007616,-0.00001874
 ,0.00002438,0.00000169,-0.00000922,-0.00016832,0.00002973,-0.00000136,
 0.00002856,-0.00000164,-0.00004021,0.00016614,0.00000405,0.00004904,-0
 .00005261,-0.00002694,-0.00001285,-0.00007272,0.00004956,-0.00001505,0
 .00006595,-0.00009259,0.00003732,-0.00000505,0.00000572,0.00002254,-0.
 00001055,0.00005203,-0.00004026,-0.00001477,-0.00001013,-0.00000755,-0
 .00000851,0.00000375,0.00004555,0.00088284,0.00071882,0.00053210,-0.00
 034665,0.00003737,-0.00008634,0.00007818,0.00124562,0.00014857,0.00144
 338,0.00093663,0.00277439,-0.00047923,0.00037959,-0.00023234,-0.000458
 53,0.00025608,-0.00002648,0.00003468,-0.00000074,0.00000917,-0.0000041
 9,-0.00000135,-0.00000137,-0.00000369,0.00000277,-0.00000202,-0.000005
 50,-0.00000338,-0.00000093,-0.03668264,-0.22849030,-0.12077214,0.03942
 962,0.24510640,0.00006519,-0.00003852,0.00005366,0.00000605,-0.0000013
 8,-0.00000889,-0.00006982,-0.00008440,0.00004211,0.00000561,-0.0000017
 5,-0.00000187,-0.00001117,0.00002567,-0.00002555,-0.00001102,0.0000401
 9,0.00001285,0.00000131,-0.00000207,-0.00000742,0.00010532,-0.00007214
 ,-0.00006684,0.00001207,0.00002977,-0.00003235,-0.00018849,0.00003593,
 0.00000027,0.00004201,0.00000229,-0.00004489,0.00019653,0.00000678,0.0
 0006431,-0.00005995,-0.00003664,-0.00001713,-0.00008104,0.00005519,-0.
 00002054,-0.00027068,-0.00016643,-0.00023832,-0.00000961,-0.00009900,-
 0.00006966,-0.00007195,0.00014588,-0.00009076,-0.00000621,-0.00003362,
 0.00000904,-0.00000859,0.00003483,0.00001506,0.00146704,-0.00083898,0.
 00098158,-0.00040045,0.00043816,-0.00008206,-0.00498036,-0.00034381,-0
 .00194156,0.00172496,-0.01194467,-0.00814229,0.00038909,0.00036889,0.0
 0003634,-0.00018035,0.00011392,0.00051274,0.00004073,-0.00000251,0.000
 01258,-0.00000478,-0.00000213,-0.00000231,-0.00000454,0.00000320,-0.00
 000130,-0.00000615,-0.00000285,-0.00000127,-0.02534570,-0.11900654,-0.
 12218007,0.02862022,0.13144963,0.13039119,-0.00001771,-0.00000686,0.00
 002609,0.00000292,-0.00000174,-0.00000083,0.00001344,-0.00001306,0.000
 00786,0.00000144,-0.00002289,0.00000506,-0.00002027,0.00000725,0.00001
 082,0.00000506,-0.00002844,-0.00002689,0.00000012,-0.00000703,0.000002
 11,-0.00002564,0.00007007,0.00002667,-0.00000561,0.00003073,-0.0000008
 2,0.00002387,-0.00005932,-0.00004104,0.00005771,0.00004574,0.00003766,
 0.00005938,0.00002841,0.00002438,-0.00002802,-0.00003299,-0.00001496,-
 0.00002557,-0.00000729,-0.00001250,0.00004597,-0.00008021,-0.00001601,
 0.00000631,-0.00001870,0.00000539,-0.00009161,0.00000967,-0.00002812,0
 .00002888,-0.00000320,-0.00000379,-0.00000738,-0.00005971,-0.00003705,
 -0.00059264,0.00070712,-0.00015138,0.00021471,-0.00071166,-0.00052731,
 0.00303428,0.00064302,0.00082669,-0.02389564,0.00345114,0.02182411,0.0
 0136103,0.00005907,-0.00015745,-0.00415222,0.00022005,-0.00378241,0.00
 002155,0.00000257,0.00001072,-0.00000221,-0.00000229,-0.00000287,-0.00
 000032,0.00000068,0.00000071,-0.00000240,-0.00000096,-0.00000025,-0.18
 991157,0.01926885,0.13017192,0.00468123,-0.00018346,-0.00470965,0.2088
 3980,-0.00006364,0.00002423,-0.00000895,0.00000102,0.00000332,0.000007
 24,0.00005544,0.00004822,-0.00003554,-0.00000533,-0.00001824,0.0000017
 1,-0.00002224,-0.00000180,0.00004295,0.00001966,-0.00004383,-0.0000198
 6,0.00000056,-0.00000228,0.00000566,-0.00005181,0.00007737,0.00004121,
 0.00000039,-0.00000706,0.00002283,0.00012250,-0.00003713,-0.00000312,-
 0.00001879,-0.00000244,0.00002302,-0.00012131,-0.00000698,-0.00004147,
 0.00003748,0.00002428,0.00001072,0.00004977,-0.00003339,0.00001398,0.0
 0004668,0.00015604,0.00004403,0.00002241,0.00002201,0.00000169,-0.0000
 1785,-0.00008034,0.00005608,0.00002278,0.00001807,-0.00000134,0.000001
 45,-0.00005616,-0.00008062,-0.00057499,-0.00010252,-0.00041158,0.00020
 630,-0.00014292,0.00011288,-0.00002188,0.00073158,0.00115463,0.0018129
 3,-0.00199941,-0.00296168,0.00015858,-0.00002954,-0.00059639,0.0004762
 0,0.00115688,0.00044303,-0.00002556,0.00000063,-0.00000811,0.00000312,
 0.00000171,0.00000154,0.00000254,-0.00000191,0.00000049,0.00000391,0.0
 0000186,0.00000090,0.02008026,-0.04803218,-0.01621639,0.01972502,-0.00
 183261,-0.01613171,-0.02304620,0.04706539,-0.00001057,0.00000862,-0.00
 000948,0.00000156,0.00000223,-0.00000058,0.00001124,-0.00000371,-0.000
 01122,0.00000169,0.00001902,0.00000359,0.00001018,-0.00001894,-0.00001
 228,-0.00000098,-0.00000084,0.00000512,-0.00000098,0.00000280,-0.00000
 052,-0.00002488,-0.00000532,0.00000900,-0.00000777,0.00000622,-0.00000
 911,0.00003097,0.00000319,0.00001148,0.00000974,0.00001191,-0.00000176
 ,-0.00002908,-0.00000743,-0.00001784,0.00000939,0.00000783,0.00000634,
 0.00001457,-0.00000680,0.00000702,0.00009214,0.00001757,0.00004562,0.0
 0000354,0.00003299,0.00001219,0.00002544,-0.00002670,0.00000237,-0.000
 00656,0.00000144,0.00000286,0.00000760,-0.00001490,0.00001344,-0.00055
 307,0.00037069,-0.00012829,-0.00001604,-0.00024206,-0.00033729,0.00131
 745,0.00105388,0.00159291,-0.01411361,0.00133118,0.01125845,0.00067736
 ,-0.00010793,0.00110183,-0.00330305,-0.00043653,-0.00066874,-0.0000084
 7,-0.00000061,-0.00000432,0.00000072,0.00000075,0.00000120,0.00000061,
 -0.00000046,-0.00000022,0.00000062,0.00000013,-0.00000004,0.13392822,-
 0.01705216,-0.16723591,0.01144180,-0.00008574,-0.01067604,-0.14237859,
 0.01830646,0.17717490,0.00002946,-0.00001386,0.00002098,0.00000859,0.0
 0000413,0.00000260,-0.00004688,-0.00008754,-0.00003667,0.00000507,0.00
 002571,0.00001209,0.00001516,-0.00001652,0.00000228,0.00001251,0.00002
 410,0.00002076,-0.00000236,0.00000774,-0.00000435,-0.00003694,-0.00005
 356,-0.00005834,-0.00001559,0.00000319,-0.00004180,-0.00001357,0.00001
 960,0.00004717,0.00001463,0.00002051,-0.00004893,-0.00000300,0.0000108
 2,-0.00000725,0.00000175,-0.00000844,0.00000408,0.00000704,-0.00000903
 ,0.00000773,0.00007817,-0.00010276,0.00000569,0.00000322,0.00000963,-0
 .00000093,-0.00001894,0.00003480,-0.00004145,-0.00000357,-0.00001135,0
 .00000832,-0.00000103,0.00000089,0.00001836,-0.00054329,0.00064464,0.0
 0019845,-0.00013776,-0.00068997,-0.00016850,0.00211527,0.00022576,0.00
 221614,-0.00068073,0.02664445,-0.02031438,-0.00480489,-0.00048309,-0.0
 0321080,0.00139544,0.00011801,0.00064955,-0.00000101,0.00000057,-0.000
 00329,0.00000048,0.00000107,0.00000087,0.00000136,-0.00000035,-0.00000
 063,-0.00000060,-0.00000088,0.00000054,-0.04677563,-0.00140877,0.00117
 162,-0.00116638,-0.00376872,0.00374438,0.00038108,-0.01887941,0.012868
 80,0.05018296,-0.00004512,0.00004144,-0.00003673,-0.00000132,-0.000001
 80,0.00001474,0.00004324,0.00003979,-0.00008415,-0.00000350,-0.0000027
 4,0.00000116,-0.00001711,-0.00003455,0.00006377,0.00000034,-0.00002570
 ,-0.00002006,0.00000101,-0.00000309,0.00000771,-0.00005288,0.00006402,
 0.00005331,-0.00001095,-0.00002200,0.00002453,0.00010818,-0.00003655,-
 0.00001939,-0.00001974,-0.00001097,0.00004157,-0.00008950,-0.00002275,
 -0.00002296,0.00002929,0.00002925,0.00000392,0.00003449,-0.00001474,0.
 00000315,0.00004055,0.00020615,0.00011165,0.00000290,0.00003291,0.0000
 3102,0.00007424,-0.00010070,0.00007650,0.00000683,0.00001595,-0.000004
 43,0.00001417,-0.00001416,-0.00000775,-0.00049540,-0.00012420,-0.00038
 748,0.00005017,0.00005382,0.00004662,0.00054388,0.00177033,0.00009003,
 -0.00078367,-0.00336839,0.00008519,0.00062070,0.00123834,-0.00027041,0
 .00038022,0.00023388,-0.00017135,-0.00001859,-0.00000197,-0.00000219,0
 .00000181,-0.00000020,0.00000029,0.00000061,-0.00000089,0.00000151,0.0
 0000352,0.00000259,-0.00000036,0.00169430,-0.21163711,0.13029147,0.000
 40709,-0.01831067,0.01605882,-0.00025836,0.00309914,-0.00316682,-0.002
 26138,0.22690557,-0.00005489,0.00002185,0.00007526,0.00002403,0.000014
 48,0.00000279,0.00002805,-0.00009501,-0.00012736,0.00000263,-0.0000098
 2,0.00001533,-0.00011632,-0.00007296,0.00007835,0.00003878,-0.00003531
 ,-0.00001757,0.00000072,0.00000192,0.00000137,-0.00010061,0.00005985,-
 0.00001353,-0.00002973,0.00001946,-0.00001200,0.00012500,-0.00003917,0
 .00001504,0.00001450,0.00002992,0.00001229,-0.00010101,0.00002160,-0.0
 0003352,0.00002903,-0.00000264,0.00000750,0.00004904,-0.00004910,0.000
 01410,0.00003550,-0.00005404,0.00001664,0.00001648,-0.00000471,-0.0000
 0197,-0.00004032,0.00003617,-0.00003992,0.00002243,-0.00000359,0.00001
 243,0.00000063,0.00002199,-0.00006608,-0.00068120,0.00032364,-0.000030
 44,0.00025499,-0.00059355,-0.00014896,0.00143493,0.00028673,0.00145243
 ,0.00005636,0.01246568,-0.01072069,-0.00306590,-0.00014402,-0.00007363
 ,-0.00004075,-0.00084038,0.00088274,-0.00001754,0.00000219,-0.00000635
 ,0.00000291,0.00000170,0.00000075,0.00000388,-0.00000212,0.00000070,0.
 00000266,0.00000113,0.00000168,-0.00029188,0.12896885,-0.14578345,0.00
 054889,-0.01374358,0.01151941,-0.00108825,0.01622573,-0.01213469,0.002
 93693,-0.14281289,0.15510133\\0.00000073,-0.00000192,0.00000715,-0.000
 00015,0.00000219,0.00000589,-0.00000174,-0.00000299,0.00000681,-0.0000
 0123,0.00000187,0.00000738,-0.00000017,-0.00000001,0.00000166,-0.00000
 230,0.00000140,0.00000361,0.00000184,0.00000129,0.00000299,0.00000195,
 0.00000083,0.00000116,-0.00000258,0.00000082,0.00000072,-0.00000221,0.
 00000263,0.00000144,-0.00000036,-0.00000199,-0.00000374,0.00000047,0.0
 0000037,-0.00000158,0.00000002,-0.00000011,0.00000116,0.00000019,0.000
 00011,-0.00000347,-0.00000050,-0.00000333,-0.00000104,0.00000234,-0.00
 000425,0.00000242,0.00000142,0.00000193,-0.00000047,0.00000203,-0.0000
 0190,0.00000518,-0.00000085,-0.00000485,0.00000278,0.00000079,-0.00000
 068,-0.00000229,0.00000096,-0.00000057,-0.00000450,0.00000197,0.000001
 53,0.00000442,0.00000847,-0.00000154,0.00000166,0.00000558,-0.00000342
 ,-0.00000395,0.00000487,0.00000249,-0.00000204,-0.00000253,-0.00000156
 ,-0.00000466,0.00000113,-0.00000084,-0.00000095,0.00000136,-0.00000261
 ,-0.00000532,0.00000127,0.00000199,-0.00000417,-0.00005326,0.00000923,
 -0.00002977,0.00000377,0.00003837,0.00001991,0.00002898,-0.00000171,-0
 .00003112,-0.00000225,-0.00003278,0.00002273\\\@


 When cryptography is outlawed, bayl bhgynjf jvyy unir cevinpl.
 Job cpu time:       0 days  2 hours  0 minutes 16.2 seconds.
 File lengths (MBytes):  RWF=    462 Int=      0 D2E=      0 Chk=     23 Scr=      1
 Normal termination of Gaussian 09 at Mon Mar 20 18:17:48 2017.
