 Entering Gaussian System, Link 0=g09
 Input=da_ortho_endo_full-b3lyp_d3bj-dz-ts.gjf
 Output=da_ortho_endo_full-b3lyp_d3bj-dz-ts.out
 Initial command:
 /n/sw/g09_D.01/g09/l1.exe "/scratch/ekwan_da_ortho_endo_full-b3lyp_d3bj-dz-ts/Gau-30706.inp" -scrdir="/scratch/ekwan_da_ortho_endo_full-b3lyp_d3bj-dz-ts/"
 Entering Link 1 = /n/sw/g09_D.01/g09/l1.exe PID=     30707.
  
 Copyright (c) 1988,1990,1992,1993,1995,1998,2003,2009,2013,
            Gaussian, Inc.  All Rights Reserved.
  
 This is part of the Gaussian(R) 09 program.  It is based on
 the Gaussian(R) 03 system (copyright 2003, Gaussian, Inc.),
 the Gaussian(R) 98 system (copyright 1998, Gaussian, Inc.),
 the Gaussian(R) 94 system (copyright 1995, Gaussian, Inc.),
 the Gaussian 92(TM) system (copyright 1992, Gaussian, Inc.),
 the Gaussian 90(TM) system (copyright 1990, Gaussian, Inc.),
 the Gaussian 88(TM) system (copyright 1988, Gaussian, Inc.),
 the Gaussian 86(TM) system (copyright 1986, Carnegie Mellon
 University), and the Gaussian 82(TM) system (copyright 1983,
 Carnegie Mellon University). Gaussian is a federally registered
 trademark of Gaussian, Inc.
  
 This software contains proprietary and confidential information,
 including trade secrets, belonging to Gaussian, Inc.
  
 This software is provided under written license and may be
 used, copied, transmitted, or stored only in accord with that
 written license.
  
 The following legend is applicable only to US Government
 contracts under FAR:
  
                    RESTRICTED RIGHTS LEGEND
  
 Use, reproduction and disclosure by the US Government is
 subject to restrictions as set forth in subparagraphs (a)
 and (c) of the Commercial Computer Software - Restricted
 Rights clause in FAR 52.227-19.
  
 Gaussian, Inc.
 340 Quinnipiac St., Bldg. 40, Wallingford CT 06492
  
  
 ---------------------------------------------------------------
 Warning -- This program may not be used in any manner that
 competes with the business of Gaussian, Inc. or will provide
 assistance to any competitor of Gaussian, Inc.  The licensee
 of this program is prohibited from giving any competitor of
 Gaussian, Inc. access to this program.  By using this program,
 the user acknowledges that Gaussian, Inc. is engaged in the
 business of creating and licensing software in the field of
 computational chemistry and represents and warrants to the
 licensee that it is not a competitor of Gaussian, Inc. and that
 it will not use this program in any manner prohibited above.
 ---------------------------------------------------------------
  

 Cite this work as:
 Gaussian 09, Revision D.01,
 M. J. Frisch, G. W. Trucks, H. B. Schlegel, G. E. Scuseria, 
 M. A. Robb, J. R. Cheeseman, G. Scalmani, V. Barone, B. Mennucci, 
 G. A. Petersson, H. Nakatsuji, M. Caricato, X. Li, H. P. Hratchian, 
 A. F. Izmaylov, J. Bloino, G. Zheng, J. L. Sonnenberg, M. Hada, 
 M. Ehara, K. Toyota, R. Fukuda, J. Hasegawa, M. Ishida, T. Nakajima, 
 Y. Honda, O. Kitao, H. Nakai, T. Vreven, J. A. Montgomery, Jr., 
 J. E. Peralta, F. Ogliaro, M. Bearpark, J. J. Heyd, E. Brothers, 
 K. N. Kudin, V. N. Staroverov, T. Keith, R. Kobayashi, J. Normand, 
 K. Raghavachari, A. Rendell, J. C. Burant, S. S. Iyengar, J. Tomasi, 
 M. Cossi, N. Rega, J. M. Millam, M. Klene, J. E. Knox, J. B. Cross, 
 V. Bakken, C. Adamo, J. Jaramillo, R. Gomperts, R. E. Stratmann, 
 O. Yazyev, A. J. Austin, R. Cammi, C. Pomelli, J. W. Ochterski, 
 R. L. Martin, K. Morokuma, V. G. Zakrzewski, G. A. Voth, 
 P. Salvador, J. J. Dannenberg, S. Dapprich, A. D. Daniels, 
 O. Farkas, J. B. Foresman, J. V. Ortiz, J. Cioslowski, 
 and D. J. Fox, Gaussian, Inc., Wallingford CT, 2013.
 
 ******************************************
 Gaussian 09:  EM64L-G09RevD.01 24-Apr-2013
                20-Mar-2017 
 ******************************************
 %nprocshared=8
 Will use up to    8 processors via shared memory.
 %mem=3GB
 ----------------------------------------------------------------------
 #p b3lyp empiricaldispersion=gd3bj cc-pVDZ scrf=(pcm,solvent=1,4-dioxa
 ne) opt=(ts,calcfc,maxstep=5,noeigentest) freq=noraman temperature=383
 ----------------------------------------------------------------------
 1/5=1,8=5,10=4,11=1,14=-1,18=20,26=3,38=1,112=383000/1,3;
 2/9=110,12=2,17=6,18=5,40=1/2;
 3/5=16,11=2,16=1,25=1,30=1,70=2201,71=2,72=31,74=-5,124=41,140=1/1,2,3;
 4//1;
 5/5=2,38=5,53=31/2;
 8/6=4,10=90,11=11/1;
 11/6=1,8=1,9=11,15=111,16=1/1,2,10;
 10/6=1,13=1/2;
 6/7=2,8=2,9=2,10=2,28=1/1;
 7/10=1,18=20,25=1/1,2,3,16;
 1/5=1,8=5,10=4,11=1,14=-1,18=20,26=3/3(2);
 2/9=110/2;
 99//99;
 2/9=110/2;
 3/5=16,11=2,16=1,25=1,30=1,70=2205,71=1,72=31,74=-5,124=41/1,2,3;
 4/5=5,16=3,69=1/1;
 5/5=2,38=5,53=31/2;
 7//1,2,3,16;
 1/5=1,8=5,11=1,14=-1,18=20,26=3/3(-5);
 2/9=110/2;
 6/7=2,8=2,9=2,10=2,19=2,28=1/1;
 99/9=1/99;
 Leave Link    1 at Mon Mar 20 17:38:52 2017, MaxMem=   402653184 cpu:         0.6
 (Enter /n/sw/g09_D.01/g09/l101.exe)
 -------------------
 Title Card Required
 -------------------
 Symbolic Z-matrix:
 Charge =  0 Multiplicity = 1
 C                     2.37341  -1.24452   1.18383 
 H                     2.6935   -0.96526   2.18529 
 C                     3.32141  -1.20262   0.15631 
 H                     4.36917  -1.1063    0.43083 
 H                     3.16556  -1.8022   -0.73649 
 C                     0.99312  -1.35699   0.97421 
 H                     0.31658  -1.16702   1.7961 
 C                     0.46429  -1.50939  -0.29487 
 H                     1.07392  -1.88276  -1.10512 
 N                    -0.8733   -1.44462  -0.63496 
 H                    -1.08998  -1.52541  -1.6194 
 C                    -1.87295  -0.84126   0.10658 
 O                    -1.80201  -0.52297   1.27905 
 O                    -2.9693   -0.71228  -0.66686 
 C                     1.6493    0.59133  -1.31441 
 H                     1.42396   0.2102   -2.30485 
 C                     2.95565   0.55183  -0.81668 
 H                     3.76043   0.38966  -1.52969 
 H                     3.20445   1.22405  -0.00345 
 C                     0.55152   1.29471  -0.68215 
 O                    -0.57831   1.40142  -1.15594 
 O                     0.89202   1.83766   0.52093 
 C                    -0.18486   2.45133   1.23895 
 H                     0.26835   2.88103   2.13371 
 H                    -0.65541   3.23409   0.63776 
 H                    -0.93378   1.70268   1.50993 
 C                    -4.05691  -0.00405  -0.05381 
 H                    -4.3533   -0.4858    0.8807 
 H                    -3.76403   1.03026   0.14347 
 C                    -5.20508  -0.0516   -1.07901 
 H                    -5.4593   -1.07079  -1.2828 
 H                    -6.05899   0.45646  -0.68201 
 H                    -4.8947    0.42649  -1.98455 
 
 Add virtual bond connecting atoms C17        and C3         Dist= 3.85D+00.
 NAtoms=     33 NQM=       33 NQMF=       0 NMMI=      0 NMMIF=      0
                NMic=       0 NMicF=      0.
                    Isotopes and Nuclear Properties:
 (Nuclear quadrupole moments (NQMom) in fm**2, nuclear magnetic moments (NMagM)
  in nuclear magnetons)

  Atom         1           2           3           4           5           6           7           8           9          10
 IAtWgt=          12           1          12           1           1          12           1          12           1          14
 AtmWgt=  12.0000000   1.0078250  12.0000000   1.0078250   1.0078250  12.0000000   1.0078250  12.0000000   1.0078250  14.0030740
 NucSpn=           0           1           0           1           1           0           1           0           1           2
 AtZEff=   0.0000000   0.0000000   0.0000000   0.0000000   0.0000000   0.0000000   0.0000000   0.0000000   0.0000000   0.0000000
 NQMom=    0.0000000   0.0000000   0.0000000   0.0000000   0.0000000   0.0000000   0.0000000   0.0000000   0.0000000   2.0440000
 NMagM=    0.0000000   2.7928460   0.0000000   2.7928460   2.7928460   0.0000000   2.7928460   0.0000000   2.7928460   0.4037610
 AtZNuc=   6.0000000   1.0000000   6.0000000   1.0000000   1.0000000   6.0000000   1.0000000   6.0000000   1.0000000   7.0000000

  Atom        11          12          13          14          15          16          17          18          19          20
 IAtWgt=           1          12          16          16          12           1          12           1           1          12
 AtmWgt=   1.0078250  12.0000000  15.9949146  15.9949146  12.0000000   1.0078250  12.0000000   1.0078250   1.0078250  12.0000000
 NucSpn=           1           0           0           0           0           1           0           1           1           0
 AtZEff=   0.0000000   0.0000000   0.0000000   0.0000000   0.0000000   0.0000000   0.0000000   0.0000000   0.0000000   0.0000000
 NQMom=    0.0000000   0.0000000   0.0000000   0.0000000   0.0000000   0.0000000   0.0000000   0.0000000   0.0000000   0.0000000
 NMagM=    2.7928460   0.0000000   0.0000000   0.0000000   0.0000000   2.7928460   0.0000000   2.7928460   2.7928460   0.0000000
 AtZNuc=   1.0000000   6.0000000   8.0000000   8.0000000   6.0000000   1.0000000   6.0000000   1.0000000   1.0000000   6.0000000

  Atom        21          22          23          24          25          26          27          28          29          30
 IAtWgt=          16          16          12           1           1           1          12           1           1          12
 AtmWgt=  15.9949146  15.9949146  12.0000000   1.0078250   1.0078250   1.0078250  12.0000000   1.0078250   1.0078250  12.0000000
 NucSpn=           0           0           0           1           1           1           0           1           1           0
 AtZEff=   0.0000000   0.0000000   0.0000000   0.0000000   0.0000000   0.0000000   0.0000000   0.0000000   0.0000000   0.0000000
 NQMom=    0.0000000   0.0000000   0.0000000   0.0000000   0.0000000   0.0000000   0.0000000   0.0000000   0.0000000   0.0000000
 NMagM=    0.0000000   0.0000000   0.0000000   2.7928460   2.7928460   2.7928460   0.0000000   2.7928460   2.7928460   0.0000000
 AtZNuc=   8.0000000   8.0000000   6.0000000   1.0000000   1.0000000   1.0000000   6.0000000   1.0000000   1.0000000   6.0000000

  Atom        31          32          33
 IAtWgt=           1           1           1
 AtmWgt=   1.0078250   1.0078250   1.0078250
 NucSpn=           1           1           1
 AtZEff=   0.0000000   0.0000000   0.0000000
 NQMom=    0.0000000   0.0000000   0.0000000
 NMagM=    2.7928460   2.7928460   2.7928460
 AtZNuc=   1.0000000   1.0000000   1.0000000
 Leave Link  101 at Mon Mar 20 17:38:53 2017, MaxMem=   402653184 cpu:         1.7
 (Enter /n/sw/g09_D.01/g09/l103.exe)

 GradGradGradGradGradGradGradGradGradGradGradGradGradGradGradGradGradGrad
 Berny optimization.
 Initialization pass.
                           ----------------------------
                           !    Initial Parameters    !
                           ! (Angstroms and Degrees)  !
 --------------------------                            --------------------------
 ! Name  Definition              Value          Derivative Info.                !
 --------------------------------------------------------------------------------
 ! R1    R(1,2)                  1.0878         calculate D2E/DX2 analytically  !
 ! R2    R(1,3)                  1.3987         calculate D2E/DX2 analytically  !
 ! R3    R(1,6)                  1.4006         calculate D2E/DX2 analytically  !
 ! R4    R(3,4)                  1.0874         calculate D2E/DX2 analytically  !
 ! R5    R(3,5)                  1.0867         calculate D2E/DX2 analytically  !
 ! R6    R(3,17)                 2.0393         calculate D2E/DX2 analytically  !
 ! R7    R(6,7)                  1.0813         calculate D2E/DX2 analytically  !
 ! R8    R(6,8)                  1.3833         calculate D2E/DX2 analytically  !
 ! R9    R(8,9)                  1.0805         calculate D2E/DX2 analytically  !
 ! R10   R(8,10)                 1.3817         calculate D2E/DX2 analytically  !
 ! R11   R(10,11)                1.0112         calculate D2E/DX2 analytically  !
 ! R12   R(10,12)                1.3832         calculate D2E/DX2 analytically  !
 ! R13   R(12,13)                1.217          calculate D2E/DX2 analytically  !
 ! R14   R(12,14)                1.3479         calculate D2E/DX2 analytically  !
 ! R15   R(14,27)                1.4354         calculate D2E/DX2 analytically  !
 ! R16   R(15,16)                1.0849         calculate D2E/DX2 analytically  !
 ! R17   R(15,17)                1.3985         calculate D2E/DX2 analytically  !
 ! R18   R(15,20)                1.449          calculate D2E/DX2 analytically  !
 ! R19   R(17,18)                1.0874         calculate D2E/DX2 analytically  !
 ! R20   R(17,19)                1.084          calculate D2E/DX2 analytically  !
 ! R21   R(20,21)                1.2298         calculate D2E/DX2 analytically  !
 ! R22   R(20,22)                1.3631         calculate D2E/DX2 analytically  !
 ! R23   R(22,23)                1.4324         calculate D2E/DX2 analytically  !
 ! R24   R(23,24)                1.0912         calculate D2E/DX2 analytically  !
 ! R25   R(23,25)                1.0934         calculate D2E/DX2 analytically  !
 ! R26   R(23,26)                1.0931         calculate D2E/DX2 analytically  !
 ! R27   R(27,28)                1.0924         calculate D2E/DX2 analytically  !
 ! R28   R(27,29)                1.0929         calculate D2E/DX2 analytically  !
 ! R29   R(27,30)                1.54           calculate D2E/DX2 analytically  !
 ! R30   R(30,31)                1.07           calculate D2E/DX2 analytically  !
 ! R31   R(30,32)                1.07           calculate D2E/DX2 analytically  !
 ! R32   R(30,33)                1.07           calculate D2E/DX2 analytically  !
 ! A1    A(2,1,3)              117.9821         calculate D2E/DX2 analytically  !
 ! A2    A(2,1,6)              116.6384         calculate D2E/DX2 analytically  !
 ! A3    A(3,1,6)              124.0838         calculate D2E/DX2 analytically  !
 ! A4    A(1,3,4)              118.0518         calculate D2E/DX2 analytically  !
 ! A5    A(1,3,5)              119.3301         calculate D2E/DX2 analytically  !
 ! A6    A(1,3,17)             104.757          calculate D2E/DX2 analytically  !
 ! A7    A(4,3,5)              113.2331         calculate D2E/DX2 analytically  !
 ! A8    A(4,3,17)             102.537          calculate D2E/DX2 analytically  !
 ! A9    A(5,3,17)              93.2659         calculate D2E/DX2 analytically  !
 ! A10   A(1,6,7)              119.2555         calculate D2E/DX2 analytically  !
 ! A11   A(1,6,8)              121.5268         calculate D2E/DX2 analytically  !
 ! A12   A(7,6,8)              118.5213         calculate D2E/DX2 analytically  !
 ! A13   A(6,8,9)              120.6858         calculate D2E/DX2 analytically  !
 ! A14   A(6,8,10)             126.2115         calculate D2E/DX2 analytically  !
 ! A15   A(9,8,10)             112.1986         calculate D2E/DX2 analytically  !
 ! A16   A(8,10,11)            116.3154         calculate D2E/DX2 analytically  !
 ! A17   A(8,10,12)            126.0251         calculate D2E/DX2 analytically  !
 ! A18   A(11,10,12)           113.6969         calculate D2E/DX2 analytically  !
 ! A19   A(10,12,13)           126.0484         calculate D2E/DX2 analytically  !
 ! A20   A(10,12,14)           108.7807         calculate D2E/DX2 analytically  !
 ! A21   A(13,12,14)           125.1144         calculate D2E/DX2 analytically  !
 ! A22   A(12,14,27)           114.7364         calculate D2E/DX2 analytically  !
 ! A23   A(16,15,17)           120.5981         calculate D2E/DX2 analytically  !
 ! A24   A(16,15,20)           114.3002         calculate D2E/DX2 analytically  !
 ! A25   A(17,15,20)           124.4784         calculate D2E/DX2 analytically  !
 ! A26   A(3,17,15)            111.2017         calculate D2E/DX2 analytically  !
 ! A27   A(3,17,18)             92.9696         calculate D2E/DX2 analytically  !
 ! A28   A(3,17,19)             97.724          calculate D2E/DX2 analytically  !
 ! A29   A(15,17,18)           117.5281         calculate D2E/DX2 analytically  !
 ! A30   A(15,17,19)           117.6371         calculate D2E/DX2 analytically  !
 ! A31   A(18,17,19)           114.4897         calculate D2E/DX2 analytically  !
 ! A32   A(15,20,21)           124.7534         calculate D2E/DX2 analytically  !
 ! A33   A(15,20,22)           112.9057         calculate D2E/DX2 analytically  !
 ! A34   A(21,20,22)           122.3403         calculate D2E/DX2 analytically  !
 ! A35   A(20,22,23)           115.1673         calculate D2E/DX2 analytically  !
 ! A36   A(22,23,24)           105.5153         calculate D2E/DX2 analytically  !
 ! A37   A(22,23,25)           110.7701         calculate D2E/DX2 analytically  !
 ! A38   A(22,23,26)           110.2391         calculate D2E/DX2 analytically  !
 ! A39   A(24,23,25)           110.3456         calculate D2E/DX2 analytically  !
 ! A40   A(24,23,26)           110.5491         calculate D2E/DX2 analytically  !
 ! A41   A(25,23,26)           109.3764         calculate D2E/DX2 analytically  !
 ! A42   A(14,27,28)           110.6938         calculate D2E/DX2 analytically  !
 ! A43   A(14,27,29)           109.9374         calculate D2E/DX2 analytically  !
 ! A44   A(14,27,30)           105.3884         calculate D2E/DX2 analytically  !
 ! A45   A(28,27,29)           109.6125         calculate D2E/DX2 analytically  !
 ! A46   A(28,27,30)           110.7081         calculate D2E/DX2 analytically  !
 ! A47   A(29,27,30)           110.437          calculate D2E/DX2 analytically  !
 ! A48   A(27,30,31)           109.4712         calculate D2E/DX2 analytically  !
 ! A49   A(27,30,32)           109.4712         calculate D2E/DX2 analytically  !
 ! A50   A(27,30,33)           109.4712         calculate D2E/DX2 analytically  !
 ! A51   A(31,30,32)           109.4713         calculate D2E/DX2 analytically  !
 ! A52   A(31,30,33)           109.4712         calculate D2E/DX2 analytically  !
 ! A53   A(32,30,33)           109.4712         calculate D2E/DX2 analytically  !
 ! D1    D(2,1,3,4)             13.019          calculate D2E/DX2 analytically  !
 ! D2    D(2,1,3,5)            157.3213         calculate D2E/DX2 analytically  !
 ! D3    D(2,1,3,17)          -100.2294         calculate D2E/DX2 analytically  !
 ! D4    D(6,1,3,4)            179.5561         calculate D2E/DX2 analytically  !
 ! D5    D(6,1,3,5)            -36.1417         calculate D2E/DX2 analytically  !
 ! D6    D(6,1,3,17)            66.3076         calculate D2E/DX2 analytically  !
 ! D7    D(2,1,6,7)             -0.0342         calculate D2E/DX2 analytically  !
 ! D8    D(2,1,6,8)            170.2607         calculate D2E/DX2 analytically  !
 ! D9    D(3,1,6,7)           -166.7363         calculate D2E/DX2 analytically  !
 ! D10   D(3,1,6,8)              3.5586         calculate D2E/DX2 analytically  !
 ! D11   D(1,3,17,15)          -59.1042         calculate D2E/DX2 analytically  !
 ! D12   D(1,3,17,18)          179.7961         calculate D2E/DX2 analytically  !
 ! D13   D(1,3,17,19)           64.587          calculate D2E/DX2 analytically  !
 ! D14   D(4,3,17,15)          177.0635         calculate D2E/DX2 analytically  !
 ! D15   D(4,3,17,18)           55.9638         calculate D2E/DX2 analytically  !
 ! D16   D(4,3,17,19)          -59.2454         calculate D2E/DX2 analytically  !
 ! D17   D(5,3,17,15)           62.3895         calculate D2E/DX2 analytically  !
 ! D18   D(5,3,17,18)          -58.7102         calculate D2E/DX2 analytically  !
 ! D19   D(5,3,17,19)         -173.9194         calculate D2E/DX2 analytically  !
 ! D20   D(1,6,8,9)             21.3192         calculate D2E/DX2 analytically  !
 ! D21   D(1,6,8,10)          -170.4399         calculate D2E/DX2 analytically  !
 ! D22   D(7,6,8,9)           -168.3168         calculate D2E/DX2 analytically  !
 ! D23   D(7,6,8,10)            -0.076          calculate D2E/DX2 analytically  !
 ! D24   D(6,8,10,11)          176.606          calculate D2E/DX2 analytically  !
 ! D25   D(6,8,10,12)           20.5368         calculate D2E/DX2 analytically  !
 ! D26   D(9,8,10,11)          -14.3055         calculate D2E/DX2 analytically  !
 ! D27   D(9,8,10,12)         -170.3746         calculate D2E/DX2 analytically  !
 ! D28   D(8,10,12,13)         -16.3629         calculate D2E/DX2 analytically  !
 ! D29   D(8,10,12,14)         166.2658         calculate D2E/DX2 analytically  !
 ! D30   D(11,10,12,13)       -172.9673         calculate D2E/DX2 analytically  !
 ! D31   D(11,10,12,14)          9.6613         calculate D2E/DX2 analytically  !
 ! D32   D(10,12,14,27)       -175.381          calculate D2E/DX2 analytically  !
 ! D33   D(13,12,14,27)          7.2171         calculate D2E/DX2 analytically  !
 ! D34   D(12,14,27,28)        -57.1994         calculate D2E/DX2 analytically  !
 ! D35   D(12,14,27,29)         64.0458         calculate D2E/DX2 analytically  !
 ! D36   D(12,14,27,30)       -176.9361         calculate D2E/DX2 analytically  !
 ! D37   D(16,15,17,3)         -89.0369         calculate D2E/DX2 analytically  !
 ! D38   D(16,15,17,18)         16.3203         calculate D2E/DX2 analytically  !
 ! D39   D(16,15,17,19)        159.5038         calculate D2E/DX2 analytically  !
 ! D40   D(20,15,17,3)         100.5407         calculate D2E/DX2 analytically  !
 ! D41   D(20,15,17,18)       -154.102          calculate D2E/DX2 analytically  !
 ! D42   D(20,15,17,19)        -10.9186         calculate D2E/DX2 analytically  !
 ! D43   D(16,15,20,21)          4.3689         calculate D2E/DX2 analytically  !
 ! D44   D(16,15,20,22)       -175.8946         calculate D2E/DX2 analytically  !
 ! D45   D(17,15,20,21)        175.3281         calculate D2E/DX2 analytically  !
 ! D46   D(17,15,20,22)         -4.9355         calculate D2E/DX2 analytically  !
 ! D47   D(15,20,22,23)       -175.1619         calculate D2E/DX2 analytically  !
 ! D48   D(21,20,22,23)          4.5818         calculate D2E/DX2 analytically  !
 ! D49   D(20,22,23,24)       -176.6193         calculate D2E/DX2 analytically  !
 ! D50   D(20,22,23,25)        -57.1998         calculate D2E/DX2 analytically  !
 ! D51   D(20,22,23,26)         63.9998         calculate D2E/DX2 analytically  !
 ! D52   D(14,27,30,31)         59.6173         calculate D2E/DX2 analytically  !
 ! D53   D(14,27,30,32)        179.6173         calculate D2E/DX2 analytically  !
 ! D54   D(14,27,30,33)        -60.3827         calculate D2E/DX2 analytically  !
 ! D55   D(28,27,30,31)        -60.11           calculate D2E/DX2 analytically  !
 ! D56   D(28,27,30,32)         59.89           calculate D2E/DX2 analytically  !
 ! D57   D(28,27,30,33)        179.89           calculate D2E/DX2 analytically  !
 ! D58   D(29,27,30,31)        178.3019         calculate D2E/DX2 analytically  !
 ! D59   D(29,27,30,32)        -61.6981         calculate D2E/DX2 analytically  !
 ! D60   D(29,27,30,33)         58.3019         calculate D2E/DX2 analytically  !
 --------------------------------------------------------------------------------
 Trust Radius=5.00D-02 FncErr=1.00D-07 GrdErr=1.00D-06
 Number of steps in this run=    155 maximum allowed number of steps=    198.
 Search for a saddle point of order  1.
 GradGradGradGradGradGradGradGradGradGradGradGradGradGradGradGradGradGrad

 Leave Link  103 at Mon Mar 20 17:38:53 2017, MaxMem=   402653184 cpu:         0.1
 (Enter /n/sw/g09_D.01/g09/l202.exe)
                          Input orientation:                          
 ---------------------------------------------------------------------
 Center     Atomic      Atomic             Coordinates (Angstroms)
 Number     Number       Type             X           Y           Z
 ---------------------------------------------------------------------
      1          6           0        2.373414   -1.244516    1.183825
      2          1           0        2.693501   -0.965263    2.185286
      3          6           0        3.321411   -1.202622    0.156308
      4          1           0        4.369173   -1.106304    0.430829
      5          1           0        3.165565   -1.802202   -0.736492
      6          6           0        0.993121   -1.356986    0.974211
      7          1           0        0.316580   -1.167022    1.796103
      8          6           0        0.464289   -1.509385   -0.294870
      9          1           0        1.073924   -1.882757   -1.105123
     10          7           0       -0.873303   -1.444622   -0.634960
     11          1           0       -1.089980   -1.525405   -1.619402
     12          6           0       -1.872947   -0.841262    0.106584
     13          8           0       -1.802011   -0.522965    1.279048
     14          8           0       -2.969303   -0.712284   -0.666861
     15          6           0        1.649302    0.591327   -1.314413
     16          1           0        1.423958    0.210196   -2.304849
     17          6           0        2.955648    0.551825   -0.816677
     18          1           0        3.760433    0.389658   -1.529690
     19          1           0        3.204451    1.224046   -0.003446
     20          6           0        0.551521    1.294708   -0.682152
     21          8           0       -0.578311    1.401420   -1.155943
     22          8           0        0.892015    1.837661    0.520934
     23          6           0       -0.184862    2.451327    1.238951
     24          1           0        0.268350    2.881032    2.133709
     25          1           0       -0.655411    3.234093    0.637760
     26          1           0       -0.933776    1.702680    1.509932
     27          6           0       -4.056909   -0.004053   -0.053808
     28          1           0       -4.353301   -0.485804    0.880699
     29          1           0       -3.764032    1.030260    0.143471
     30          6           0       -5.205079   -0.051602   -1.079013
     31          1           0       -5.459297   -1.070791   -1.282796
     32          1           0       -6.058989    0.456460   -0.682010
     33          1           0       -4.894705    0.426488   -1.984551
 ---------------------------------------------------------------------
                    Distance matrix (angstroms):
                    1          2          3          4          5
     1  C    0.000000
     2  H    1.087824   0.000000
     3  C    1.398658   2.137139   0.000000
     4  H    2.137559   2.430203   1.087402   0.000000
     5  H    2.150845   3.075727   1.086681   1.815374   0.000000
     6  C    1.400641   2.124015   2.472595   3.428678   2.800756
     7  H    2.147430   2.417007   3.423332   4.276818   3.864480
     8  C    2.429291   3.378850   2.908747   3.992146   2.752756
     9  H    2.708378   3.780425   2.665519   3.717619   2.125403
    10  N    3.726821   4.572271   4.275546   5.360403   4.055937
    11  H    4.464536   5.394825   4.766309   5.846490   4.354975
    12  C    4.399391   5.018847   5.207150   6.256153   5.198152
    13  O    4.238381   4.607225   5.288850   6.256458   5.511412
    14  O    5.679167   6.345557   6.363263   7.430572   6.231322
    15  C    3.183685   3.970040   2.859584   3.650414   2.891717
    16  H    3.897243   4.811939   3.413748   4.229822   3.089124
    17  C    2.750972   3.373731   2.039256   2.510720   2.364728
    18  H    3.457963   4.095754   2.360230   2.540099   2.405677
    19  H    2.862522   3.137625   2.434732   2.641156   3.114008
    20  C    3.639893   4.232936   3.822560   4.645218   4.053027
    21  O    4.603061   5.241160   4.869381   5.769239   4.945275
    22  O    3.483358   3.724487   3.908739   4.556937   4.471996
    23  C    4.495228   4.566575   5.178553   5.835155   5.763701
    24  H    4.727972   4.547307   5.468777   5.967864   6.210039
    25  H    5.434143   5.589690   5.977571   6.642914   6.469366
    26  H    4.441826   4.553149   5.327260   6.097223   5.842535
    27  C    6.664798   7.176733   7.477989   8.511680   7.474191
    28  H    6.776151   7.182565   7.742078   8.756081   7.802663
    29  H    6.627608   7.060514   7.428959   8.414066   7.537671
    30  C    7.998564   8.595231   8.692059   9.749786   8.558598
    31  H    8.213754   8.860409   8.898833   9.976803   8.673042
    32  H    8.802277   9.319268   9.562804  10.603169   9.497205
    33  H    8.102864   8.769571   8.645336   9.695511   8.455333
                    6          7          8          9         10
     6  C    0.000000
     7  H    1.081342   0.000000
     8  C    1.383277   2.123958   0.000000
     9  H    2.146298   3.082687   1.080542   0.000000
    10  N    2.465897   2.720836   1.381668   2.050539   0.000000
    11  H    3.330841   3.711135   2.042154   2.252701   1.011237
    12  C    3.038601   2.784712   2.463783   3.352163   1.383192
    13  O    2.932794   2.273892   2.930249   3.975463   2.318486
    14  O    4.336999   4.131586   3.544475   4.231993   2.220485
    15  C    3.076410   3.813561   2.618533   2.548716   3.312141
    16  H    3.659770   4.465515   2.813883   2.437687   3.286999
    17  C    3.271445   4.092155   3.275323   3.090514   4.322000
    18  H    4.120473   5.034310   3.999464   3.544215   5.063263
    19  H    3.536597   4.158772   3.881374   3.924928   4.914130
    20  C    3.157535   3.501008   2.832055   3.247783   3.088087
    21  O    3.823056   4.014013   3.209556   3.676722   2.908333
    22  O    3.228227   3.314408   3.471484   4.064316   3.902028
    23  C    3.995119   3.695174   4.296655   5.085618   4.377661
    24  H    4.453148   4.062394   5.021170   5.816586   5.261196
    25  H    4.889669   4.653637   4.962269   5.675420   4.853624
    26  H    3.655337   3.143322   3.940718   4.870804   3.809164
    27  C    5.328232   4.888975   4.771307   5.564193   3.542361
    28  H    5.417742   4.807266   5.063482   5.945565   3.914964
    29  H    5.386982   4.920430   4.951832   5.783638   3.884239
    30  C    6.658636   6.324490   5.906077   6.540618   4.571867
    31  H    6.841761   6.545963   6.021398   6.585882   4.646588
    32  H    7.467523   7.030264   6.824044   7.518604   5.523374
    33  H    6.826532   6.632504   5.943184   6.459918   4.636175
                   11         12         13         14         15
    11  H    0.000000
    12  C    2.014973   0.000000
    13  O    3.148474   1.216970   0.000000
    14  O    2.258397   1.347905   2.277054   0.000000
    15  C    3.475232   4.059283   4.458615   4.842545   0.000000
    16  H    3.130820   4.217838   4.877368   4.778568   1.084898
    17  C    4.618047   5.109641   5.308725   6.060154   1.398514
    18  H    5.215556   5.993958   6.297831   6.873725   2.131640
    19  H    5.349106   5.482479   5.455410   6.504209   2.130131
    20  C    3.394996   3.326036   3.562212   4.052709   1.449007
    21  O    3.007142   2.880916   3.336148   3.228589   2.375631
    22  O    4.451916   3.872122   3.661293   4.777327   2.344212
    23  C    4.980343   3.869500   3.385734   4.625329   3.652865
    24  H    5.945384   4.748669   4.074805   5.589053   4.363407
    25  H    5.285494   4.286381   3.980129   4.757102   4.013339
    26  H    4.498629   3.053370   2.400132   3.835864   3.985514
    27  C    3.683512   2.344426   2.670270   1.435379   5.874049
    28  H    4.240347   2.622548   2.582468   2.088465   6.481510
    29  H    4.097524   2.660857   2.748012   2.079589   5.623368
    30  C    4.404334   3.623852   4.166954   2.367502   6.888491
    31  H    4.405782   3.852917   4.498766   2.589976   7.300398
    32  H    5.431164   4.452966   4.788202   3.303384   7.735365
    33  H    4.291754   3.887294   4.595355   2.596205   6.580295
                   16         17         18         19         20
    16  H    0.000000
    17  C    2.162739   0.000000
    18  H    2.468237   1.087366   0.000000
    19  H    3.081315   1.084034   1.826127   0.000000
    20  C    2.137863   2.519881   3.440138   2.739283   0.000000
    21  O    2.597707   3.650449   4.470800   3.958409   1.229791
    22  O    3.304036   2.775096   3.811770   2.449257   1.363140
    23  C    4.491045   4.206723   5.242252   3.812770   2.360225
    24  H    5.307503   4.620774   5.641106   3.991707   3.244331
    25  H    4.703900   4.727546   5.682282   4.398860   2.638194
    26  H    4.726412   4.676023   5.744469   4.432192   2.679138
    27  C    5.928996   7.075799   7.965179   7.364653   4.828998
    28  H    6.633917   7.574859   8.509353   7.799033   5.447018
    29  H    5.794999   6.804769   7.734818   6.972725   4.401771
    30  C    6.746506   8.187210   8.987671   8.573466   5.925242
    31  H    7.075643   8.582625   9.337949   9.053372   6.487395
    32  H    7.660858   9.016147   9.856169   9.319922   6.663445
    33  H    6.330472   7.937738   8.667160   8.375990   5.666694
                   21         22         23         24         25
    21  O    0.000000
    22  O    2.272461   0.000000
    23  C    2.644357   1.432410   0.000000
    24  H    3.705118   2.019560   1.091164   0.000000
    25  H    2.565542   2.087630   1.093421   1.793279   0.000000
    26  H    2.706289   2.080829   1.093058   1.795193   1.784208
    27  C    3.910332   5.311693   4.763703   5.640639   4.747004
    28  H    4.686158   5.748153   5.111846   5.853655   5.250814
    29  H    3.460499   4.740585   4.003744   4.862768   3.842490
    30  C    4.850172   6.580555   6.069612   6.991448   5.868780
    31  H    5.472837   7.214686   6.825261   7.752119   6.730370
    32  H    5.581701   7.188271   6.494224   7.337713   6.217370
    33  H    4.502037   6.461810   6.055870   7.045707   5.721082
                   26         27         28         29         30
    26  H    0.000000
    27  C    3.887439   0.000000
    28  H    4.108351   1.092353   0.000000
    29  H    3.213987   1.092932   1.785831   0.000000
    30  C    5.293786   1.540000   2.180488   2.177500   0.000000
    31  H    5.997650   2.148263   2.499229   3.053289   1.070000
    32  H    5.711872   2.148263   2.497857   2.505492   1.070000
    33  H    5.434062   2.148263   3.055331   2.484238   1.070000
                   31         32         33
    31  H    0.000000
    32  H    1.747303   0.000000
    33  H    1.747303   1.747303   0.000000
 Stoichiometry    C11H17NO4
 Framework group  C1[X(C11H17NO4)]
 Deg. of freedom    93
 Full point group                 C1      NOp   1
 Largest Abelian subgroup         C1      NOp   1
 Largest concise Abelian subgroup C1      NOp   1
                         Standard orientation:                         
 ---------------------------------------------------------------------
 Center     Atomic      Atomic             Coordinates (Angstroms)
 Number     Number       Type             X           Y           Z
 ---------------------------------------------------------------------
      1          6           0        2.805136   -1.248664    1.061439
      2          1           0        3.199900   -0.967593    2.035361
      3          6           0        3.674340   -1.214268   -0.033798
      4          1           0        4.739993   -1.121685    0.161793
      5          1           0        3.450103   -1.816034   -0.910423
      6          6           0        1.412629   -1.355722    0.955333
      7          1           0        0.799815   -1.160124    1.824529
      8          6           0        0.790343   -1.509884   -0.270412
      9          1           0        1.336539   -1.888554   -1.122381
     10          7           0       -0.568538   -1.440322   -0.510434
     11          1           0       -0.858089   -1.523326   -1.475768
     12          6           0       -1.507809   -0.830169    0.301171
     13          8           0       -1.348639   -0.508404    1.463990
     14          8           0       -2.658053   -0.698855   -0.389153
     15          6           0        1.905058    0.582280   -1.382606
     16          1           0        1.605171    0.198951   -2.352209
     17          6           0        3.244598    0.538625   -0.983143
     18          1           0        3.993504    0.370610   -1.753386
     19          1           0        3.555924    1.212364   -0.193029
     20          6           0        0.860219    1.292532   -0.673047
     21          8           0       -0.301237    1.402695   -1.061981
     22          8           0        1.291409    1.837860    0.499490
     23          6           0        0.273413    2.458583    1.293333
     24          1           0        0.793631    2.889172    2.150424
     25          1           0       -0.237242    3.241471    0.725982
     26          1           0       -0.456404    1.714124    1.621848
     27          6           0       -3.694152    0.016140    0.300478
     28          1           0       -3.922297   -0.461280    1.256122
     29          1           0       -3.383130    1.049783    0.471787
     30          6           0       -4.915504   -0.029655   -0.636433
     31          1           0       -5.188395   -1.048365   -0.817153
     32          1           0       -5.735439    0.483447   -0.178903
     33          1           0       -4.671279    0.444136   -1.564214
 ---------------------------------------------------------------------
 Rotational constants (GHZ):      0.9220191      0.3367824      0.3019241
 Leave Link  202 at Mon Mar 20 17:38:53 2017, MaxMem=   402653184 cpu:         0.0
 (Enter /n/sw/g09_D.01/g09/l301.exe)
 Standard basis: CC-pVDZ (5D, 7F)
 Ernie: Thresh=  0.10000D-02 Tol=  0.10000D-05 Strict=F.
 Ernie:  32 primitive shells out of 437 were deleted.
 There are   325 symmetry adapted cartesian basis functions of A   symmetry.
 There are   309 symmetry adapted basis functions of A   symmetry.
   309 basis functions,   647 primitive gaussians,   325 cartesian basis functions
    61 alpha electrons       61 beta electrons
       nuclear repulsion energy      1190.6897486292 Hartrees.
 IExCor=  402 DFT=T Ex+Corr=B3LYP ExCW=0 ScaHFX=  0.200000
 ScaDFX=  0.800000  0.720000  1.000000  0.810000 ScalE2=  1.000000  1.000000
 IRadAn=      0 IRanWt=     -1 IRanGd=            0 ICorTp=0 IEmpDi=141
 NAtoms=   33 NActive=   33 NUniq=   33 SFac= 1.00D+00 NAtFMM=   60 NAOKFM=F Big=F
 Integral buffers will be    131072 words long.
 Raffenetti 2 integral format.
 Two-electron integral symmetry is turned on.
 R6Disp:  Grimme-D3(BJ) Dispersion energy=       -0.0629151172 Hartrees.
 Nuclear repulsion after empirical dispersion term =     1190.6268335120 Hartrees.
 Force inversion solution in PCM.
 ------------------------------------------------------------------------------
 Polarizable Continuum Model (PCM)
 =================================
 Model                : PCM (using non-symmetric T matrix).
 Atomic radii         : UFF (Universal Force Field).
 Polarization charges : Total charges.
 Charge compensation  : None.
 Solution method      : Matrix inversion.
 Cavity type          : Scaled VdW (van der Waals Surface) (Alpha=1.100).
 Cavity algorithm     : GePol (No added spheres)
                        Default sphere list used, NSphG=   33.
                        Lebedev-Laikov grids with approx.  5.0 points / Ang**2.
                        Smoothing algorithm: Karplus/York (Gamma=1.0000).
                        Polarization charges: spherical gaussians, with
                                              point-specific exponents (IZeta= 3).
                        Self-potential: point-specific (ISelfS= 7).
                        Self-field    : sphere-specific E.n sum rule (ISelfD= 2).
 1st derivatives      : Analytical E(r).r(x)/FMM algorithm (CHGder, D1EAlg=3).
                        Cavity 1st derivative terms included.
 2nd derivatives      : Analytical E(r).r(xy)/FMM algorithm (CHGder, D2EAlg=3).
                        Cavity 2nd derivative terms included.
 Solvent              : 1,4-Dioxane, Eps=   2.209900 Eps(inf)=   2.023222
 ------------------------------------------------------------------------------
 GePol: Number of generator spheres                  =      33
 GePol: Total number of spheres                      =      33
 GePol: Number of exposed spheres                    =      33 (100.00%)
 GePol: Number of points                             =    2340
 GePol: Average weight of points                     =       0.13
 GePol: Minimum weight of points                     =   0.49D-09
 GePol: Maximum weight of points                     =    0.20577
 GePol: Number of points with low weight             =     156
 GePol: Fraction of low-weight points (<1% of avg)   =       6.67%
 GePol: Cavity surface area                          =    303.271 Ang**2
 GePol: Cavity volume                                =    330.831 Ang**3
 Leave Link  301 at Mon Mar 20 17:38:53 2017, MaxMem=   402653184 cpu:         0.7
 (Enter /n/sw/g09_D.01/g09/l302.exe)
 NPDir=0 NMtPBC=     1 NCelOv=     1 NCel=       1 NClECP=     1 NCelD=      1
         NCelK=      1 NCelE2=     1 NClLst=     1 CellRange=     0.0.
 One-electron integrals computed using PRISM.
 NBasis=   309 RedAO= T EigKep=  1.19D-03  NBF=   309
 NBsUse=   309 1.00D-06 EigRej= -1.00D+00 NBFU=   309
 Precomputing XC quadrature grid using
 IXCGrd= 4 IRadAn=           0 IRanWt=          -1 IRanGd=           0 AccXCQ= 0.00D+00.
 Generated NRdTot=       0 NPtTot=           0 NUsed=           0 NTot=          32
 NSgBfM=   324   324   324   324   324 MxSgAt=    33 MxSgA2=    33.
 Leave Link  302 at Mon Mar 20 17:38:53 2017, MaxMem=   402653184 cpu:         4.7
 (Enter /n/sw/g09_D.01/g09/l303.exe)
 DipDrv:  MaxL=1.
 Leave Link  303 at Mon Mar 20 17:38:53 2017, MaxMem=   402653184 cpu:         0.8
 (Enter /n/sw/g09_D.01/g09/l401.exe)
 ExpMin= 1.22D-01 ExpMax= 1.17D+04 ExpMxC= 4.01D+02 IAcc=1 IRadAn=         1 AccDes= 0.00D+00
 Harris functional with IExCor=  402 and IRadAn=       1 diagonalized for initial guess.
 HarFok:  IExCor=  402 AccDes= 0.00D+00 IRadAn=         1 IDoV= 1 UseB2=F ITyADJ=14
 ICtDFT=  3500011 ScaDFX=  1.000000  1.000000  1.000000  1.000000
 FoFCou: FMM=F IPFlag=           0 FMFlag=      100000 FMFlg1=           0
         NFxFlg=           0 DoJE=T BraDBF=F KetDBF=T FulRan=T
         wScrn=  0.000000 ICntrl=     500 IOpCl=  0 I1Cent=   200000004 NGrid=           0
         NMat0=    1 NMatS0=      1 NMatT0=    0 NMatD0=    1 NMtDS0=    0 NMtDT0=    0
 Petite list used in FoFCou.
 Harris En= -785.140503934447    
 JPrj=0 DoOrth=F DoCkMO=F.
 Leave Link  401 at Mon Mar 20 17:38:54 2017, MaxMem=   402653184 cpu:         8.2
 (Enter /n/sw/g09_D.01/g09/l502.exe)
 Closed shell SCF:
 Using DIIS extrapolation, IDIIS=  1040.
 Integral symmetry usage will be decided dynamically.
 IVT=      340497 IEndB=      340497 NGot=   402653184 MDV=   402435278
 LenX=   402435278 LenY=   402329212
 Requested convergence on RMS density matrix=1.00D-08 within 128 cycles.
 Requested convergence on MAX density matrix=1.00D-06.
 Requested convergence on             energy=1.00D-06.
 No special actions if energy rises.
 Fock matrices will be formed incrementally for  20 cycles.

 Cycle   1  Pass 1  IDiag  1:
 FoFJK:  IHMeth= 1 ICntrl=       0 DoSepK=F KAlg= 0 I1Cent=   0 FoldK=F
 IRaf= 870000000 NMat=   1 IRICut=       1 DoRegI=T DoRafI=F ISym2E= 0.
 FoFCou: FMM=F IPFlag=           0 FMFlag=      100000 FMFlg1=           0
         NFxFlg=           0 DoJE=F BraDBF=F KetDBF=F FulRan=T
         wScrn=  0.000000 ICntrl=       0 IOpCl=  0 I1Cent=           0 NGrid=           0
         NMat0=    1 NMatS0=      1 NMatT0=    0 NMatD0=    1 NMtDS0=    0 NMtDT0=    0
 Symmetry not used in FoFCou.
 Inv3:  Mode=1 IEnd=    16426800.
 Iteration    1 A*A^-1 deviation from unit magnitude is 7.99D-15 for   1563.
 Iteration    1 A*A^-1 deviation from orthogonality  is 6.22D-15 for   1806    814.
 Iteration    1 A^-1*A deviation from unit magnitude is 7.77D-15 for    113.
 Iteration    1 A^-1*A deviation from orthogonality  is 2.97D-13 for   2097   2030.
 E= -784.668624388914    
 DIIS: error= 2.09D-02 at cycle   1 NSaved=   1.
 NSaved= 1 IEnMin= 1 EnMin= -784.668624388914     IErMin= 1 ErrMin= 2.09D-02
 ErrMax= 2.09D-02  0.00D+00 EMaxC= 1.00D-01 BMatC= 4.60D-01 BMatP= 4.60D-01
 IDIUse=3 WtCom= 7.91D-01 WtEn= 2.09D-01
 Coeff-Com:  0.100D+01
 Coeff-En:   0.100D+01
 Coeff:      0.100D+01
 Gap=     0.153 Goal=   None    Shift=    0.000
 GapD=    0.153 DampG=1.000 DampE=0.500 DampFc=0.5000 IDamp=-1.
 Damping current iteration by 5.00D-01
 RMSDP=4.63D-03 MaxDP=1.95D-01              OVMax= 2.50D-01

 Cycle   2  Pass 1  IDiag  1:
 RMSU=  2.29D-03    CP:  9.83D-01
 E= -784.809440385468     Delta-E=       -0.140815996553 Rises=F Damp=T
 DIIS: error= 1.12D-02 at cycle   2 NSaved=   2.
 NSaved= 2 IEnMin= 2 EnMin= -784.809440385468     IErMin= 2 ErrMin= 1.12D-02
 ErrMax= 1.12D-02  0.00D+00 EMaxC= 1.00D-01 BMatC= 5.81D-02 BMatP= 4.60D-01
 IDIUse=3 WtCom= 8.88D-01 WtEn= 1.12D-01
 Coeff-Com:  0.197D+00 0.803D+00
 Coeff-En:   0.299D+00 0.701D+00
 Coeff:      0.209D+00 0.791D+00
 Gap=     0.156 Goal=   None    Shift=    0.000
 RMSDP=1.31D-03 MaxDP=5.41D-02 DE=-1.41D-01 OVMax= 2.30D-01

 Cycle   3  Pass 1  IDiag  1:
 RMSU=  1.22D-03    CP:  9.77D-01  8.04D-01
 E= -785.062073370943     Delta-E=       -0.252632985475 Rises=F Damp=F
 DIIS: error= 1.15D-02 at cycle   3 NSaved=   3.
 NSaved= 3 IEnMin= 3 EnMin= -785.062073370943     IErMin= 2 ErrMin= 1.12D-02
 ErrMax= 1.15D-02  0.00D+00 EMaxC= 1.00D-01 BMatC= 5.14D-02 BMatP= 5.81D-02
 IDIUse=3 WtCom= 8.85D-01 WtEn= 1.15D-01
 Coeff-Com:  0.679D-01 0.482D+00 0.450D+00
 Coeff-En:   0.000D+00 0.000D+00 0.100D+01
 Coeff:      0.601D-01 0.427D+00 0.513D+00
 Gap=     0.148 Goal=   None    Shift=    0.000
 RMSDP=8.30D-04 MaxDP=4.45D-02 DE=-2.53D-01 OVMax= 7.22D-02

 Cycle   4  Pass 1  IDiag  1:
 RMSU=  5.36D-04    CP:  9.79D-01  8.63D-01  4.94D-01
 E= -785.100951025653     Delta-E=       -0.038877654710 Rises=F Damp=F
 DIIS: error= 5.52D-03 at cycle   4 NSaved=   4.
 NSaved= 4 IEnMin= 4 EnMin= -785.100951025653     IErMin= 4 ErrMin= 5.52D-03
 ErrMax= 5.52D-03  0.00D+00 EMaxC= 1.00D-01 BMatC= 8.10D-03 BMatP= 5.14D-02
 IDIUse=3 WtCom= 9.45D-01 WtEn= 5.52D-02
 Coeff-Com:  0.138D-01 0.102D+00 0.298D+00 0.586D+00
 Coeff-En:   0.000D+00 0.000D+00 0.146D+00 0.854D+00
 Coeff:      0.131D-01 0.965D-01 0.290D+00 0.601D+00
 Gap=     0.147 Goal=   None    Shift=    0.000
 RMSDP=2.64D-04 MaxDP=1.57D-02 DE=-3.89D-02 OVMax= 2.40D-02

 Cycle   5  Pass 1  IDiag  1:
 RMSU=  1.11D-04    CP:  9.79D-01  8.38D-01  6.18D-01  6.70D-01
 E= -785.107389667130     Delta-E=       -0.006438641477 Rises=F Damp=F
 DIIS: error= 1.22D-03 at cycle   5 NSaved=   5.
 NSaved= 5 IEnMin= 5 EnMin= -785.107389667130     IErMin= 5 ErrMin= 1.22D-03
 ErrMax= 1.22D-03  0.00D+00 EMaxC= 1.00D-01 BMatC= 4.22D-04 BMatP= 8.10D-03
 IDIUse=3 WtCom= 9.88D-01 WtEn= 1.22D-02
 Coeff-Com:  0.224D-02 0.154D-01 0.112D+00 0.317D+00 0.553D+00
 Coeff-En:   0.000D+00 0.000D+00 0.000D+00 0.000D+00 0.100D+01
 Coeff:      0.221D-02 0.152D-01 0.111D+00 0.313D+00 0.559D+00
 Gap=     0.147 Goal=   None    Shift=    0.000
 RMSDP=6.43D-05 MaxDP=3.12D-03 DE=-6.44D-03 OVMax= 6.50D-03

 Cycle   6  Pass 1  IDiag  1:
 RMSU=  4.05D-05    CP:  9.79D-01  8.42D-01  6.15D-01  6.99D-01  5.85D-01
 E= -785.107696167949     Delta-E=       -0.000306500819 Rises=F Damp=F
 DIIS: error= 3.28D-04 at cycle   6 NSaved=   6.
 NSaved= 6 IEnMin= 6 EnMin= -785.107696167949     IErMin= 6 ErrMin= 3.28D-04
 ErrMax= 3.28D-04  0.00D+00 EMaxC= 1.00D-01 BMatC= 5.04D-05 BMatP= 4.22D-04
 IDIUse=3 WtCom= 9.97D-01 WtEn= 3.28D-03
 Coeff-Com: -0.286D-04-0.625D-03 0.358D-01 0.122D+00 0.324D+00 0.518D+00
 Coeff-En:   0.000D+00 0.000D+00 0.000D+00 0.000D+00 0.403D-01 0.960D+00
 Coeff:     -0.285D-04-0.623D-03 0.357D-01 0.122D+00 0.323D+00 0.520D+00
 Gap=     0.147 Goal=   None    Shift=    0.000
 RMSDP=2.27D-05 MaxDP=1.10D-03 DE=-3.07D-04 OVMax= 2.58D-03

 Cycle   7  Pass 1  IDiag  1:
 RMSU=  1.38D-05    CP:  9.79D-01  8.42D-01  6.15D-01  7.07D-01  6.33D-01
                    CP:  5.89D-01
 E= -785.107732928002     Delta-E=       -0.000036760052 Rises=F Damp=F
 DIIS: error= 9.22D-05 at cycle   7 NSaved=   7.
 NSaved= 7 IEnMin= 7 EnMin= -785.107732928002     IErMin= 7 ErrMin= 9.22D-05
 ErrMax= 9.22D-05  0.00D+00 EMaxC= 1.00D-01 BMatC= 5.14D-06 BMatP= 5.04D-05
 IDIUse=1 WtCom= 1.00D+00 WtEn= 0.00D+00
 Coeff-Com: -0.177D-03-0.204D-02 0.110D-01 0.435D-01 0.145D+00 0.314D+00
 Coeff-Com:  0.489D+00
 Coeff:     -0.177D-03-0.204D-02 0.110D-01 0.435D-01 0.145D+00 0.314D+00
 Coeff:      0.489D+00
 Gap=     0.147 Goal=   None    Shift=    0.000
 RMSDP=6.99D-06 MaxDP=3.29D-04 DE=-3.68D-05 OVMax= 6.52D-04

 Cycle   8  Pass 1  IDiag  1:
 RMSU=  4.01D-06    CP:  9.79D-01  8.42D-01  6.16D-01  7.07D-01  6.36D-01
                    CP:  6.50D-01  6.47D-01
 E= -785.107737206648     Delta-E=       -0.000004278646 Rises=F Damp=F
 DIIS: error= 3.64D-05 at cycle   8 NSaved=   8.
 NSaved= 8 IEnMin= 8 EnMin= -785.107737206648     IErMin= 8 ErrMin= 3.64D-05
 ErrMax= 3.64D-05  0.00D+00 EMaxC= 1.00D-01 BMatC= 3.65D-07 BMatP= 5.14D-06
 IDIUse=1 WtCom= 1.00D+00 WtEn= 0.00D+00
 Coeff-Com: -0.554D-04-0.101D-02 0.275D-02 0.118D-01 0.495D-01 0.123D+00
 Coeff-Com:  0.264D+00 0.551D+00
 Coeff:     -0.554D-04-0.101D-02 0.275D-02 0.118D-01 0.495D-01 0.123D+00
 Coeff:      0.264D+00 0.551D+00
 Gap=     0.147 Goal=   None    Shift=    0.000
 RMSDP=1.98D-06 MaxDP=1.14D-04 DE=-4.28D-06 OVMax= 2.00D-04

 Cycle   9  Pass 1  IDiag  1:
 RMSU=  1.50D-06    CP:  9.79D-01  8.42D-01  6.16D-01  7.07D-01  6.41D-01
                    CP:  6.49D-01  6.73D-01  7.19D-01
 E= -785.107737452358     Delta-E=       -0.000000245710 Rises=F Damp=F
 DIIS: error= 1.89D-05 at cycle   9 NSaved=   9.
 NSaved= 9 IEnMin= 9 EnMin= -785.107737452358     IErMin= 9 ErrMin= 1.89D-05
 ErrMax= 1.89D-05  0.00D+00 EMaxC= 1.00D-01 BMatC= 6.60D-08 BMatP= 3.65D-07
 IDIUse=1 WtCom= 1.00D+00 WtEn= 0.00D+00
 Coeff-Com:  0.632D-06-0.309D-03 0.161D-03 0.808D-03 0.912D-02 0.277D-01
 Coeff-Com:  0.814D-01 0.334D+00 0.548D+00
 Coeff:      0.632D-06-0.309D-03 0.161D-03 0.808D-03 0.912D-02 0.277D-01
 Coeff:      0.814D-01 0.334D+00 0.548D+00
 Gap=     0.147 Goal=   None    Shift=    0.000
 RMSDP=8.22D-07 MaxDP=3.78D-05 DE=-2.46D-07 OVMax= 6.88D-05

 Cycle  10  Pass 1  IDiag  1:
 RMSU=  5.90D-07    CP:  9.79D-01  8.42D-01  6.16D-01  7.07D-01  6.41D-01
                    CP:  6.51D-01  6.86D-01  7.97D-01  7.16D-01
 E= -785.107737500905     Delta-E=       -0.000000048547 Rises=F Damp=F
 DIIS: error= 2.86D-06 at cycle  10 NSaved=  10.
 NSaved=10 IEnMin=10 EnMin= -785.107737500905     IErMin=10 ErrMin= 2.86D-06
 ErrMax= 2.86D-06  0.00D+00 EMaxC= 1.00D-01 BMatC= 5.76D-09 BMatP= 6.60D-08
 IDIUse=1 WtCom= 1.00D+00 WtEn= 0.00D+00
 Coeff-Com:  0.487D-05-0.739D-04-0.209D-03-0.884D-03-0.276D-03 0.210D-02
 Coeff-Com:  0.145D-01 0.124D+00 0.301D+00 0.559D+00
 Coeff:      0.487D-05-0.739D-04-0.209D-03-0.884D-03-0.276D-03 0.210D-02
 Coeff:      0.145D-01 0.124D+00 0.301D+00 0.559D+00
 Gap=     0.147 Goal=   None    Shift=    0.000
 RMSDP=3.17D-07 MaxDP=1.71D-05 DE=-4.85D-08 OVMax= 4.52D-05

 Cycle  11  Pass 1  IDiag  1:
 RMSU=  2.22D-07    CP:  9.79D-01  8.42D-01  6.16D-01  7.07D-01  6.41D-01
                    CP:  6.53D-01  6.89D-01  8.11D-01  7.68D-01  7.13D-01
 E= -785.107737505983     Delta-E=       -0.000000005078 Rises=F Damp=F
 DIIS: error= 1.33D-06 at cycle  11 NSaved=  11.
 NSaved=11 IEnMin=11 EnMin= -785.107737505983     IErMin=11 ErrMin= 1.33D-06
 ErrMax= 1.33D-06  0.00D+00 EMaxC= 1.00D-01 BMatC= 1.06D-09 BMatP= 5.76D-09
 IDIUse=1 WtCom= 1.00D+00 WtEn= 0.00D+00
 Coeff-Com:  0.387D-05 0.788D-05-0.149D-03-0.684D-03-0.160D-02-0.286D-02
 Coeff-Com: -0.409D-02 0.265D-01 0.101D+00 0.337D+00 0.546D+00
 Coeff:      0.387D-05 0.788D-05-0.149D-03-0.684D-03-0.160D-02-0.286D-02
 Coeff:     -0.409D-02 0.265D-01 0.101D+00 0.337D+00 0.546D+00
 Gap=     0.147 Goal=   None    Shift=    0.000
 RMSDP=1.46D-07 MaxDP=6.25D-06 DE=-5.08D-09 OVMax= 2.15D-05

 Cycle  12  Pass 1  IDiag  1:
 RMSU=  6.95D-08    CP:  9.79D-01  8.42D-01  6.16D-01  7.07D-01  6.41D-01
                    CP:  6.52D-01  6.89D-01  8.19D-01  7.94D-01  8.20D-01
                    CP:  5.73D-01
 E= -785.107737507116     Delta-E=       -0.000000001133 Rises=F Damp=F
 DIIS: error= 3.76D-07 at cycle  12 NSaved=  12.
 NSaved=12 IEnMin=12 EnMin= -785.107737507116     IErMin=12 ErrMin= 3.76D-07
 ErrMax= 3.76D-07  0.00D+00 EMaxC= 1.00D-01 BMatC= 7.75D-11 BMatP= 1.06D-09
 IDIUse=1 WtCom= 1.00D+00 WtEn= 0.00D+00
 Coeff-Com:  0.421D-06 0.108D-04-0.316D-04-0.163D-03-0.590D-03-0.121D-02
 Coeff-Com: -0.330D-02-0.274D-02 0.611D-02 0.576D-01 0.250D+00 0.694D+00
 Coeff:      0.421D-06 0.108D-04-0.316D-04-0.163D-03-0.590D-03-0.121D-02
 Coeff:     -0.330D-02-0.274D-02 0.611D-02 0.576D-01 0.250D+00 0.694D+00
 Gap=     0.147 Goal=   None    Shift=    0.000
 RMSDP=4.02D-08 MaxDP=1.16D-06 DE=-1.13D-09 OVMax= 5.71D-06

 Cycle  13  Pass 1  IDiag  1:
 RMSU=  2.15D-08    CP:  9.79D-01  8.42D-01  6.16D-01  7.07D-01  6.41D-01
                    CP:  6.53D-01  6.89D-01  8.20D-01  7.98D-01  8.23D-01
                    CP:  6.92D-01  8.35D-01
 E= -785.107737507211     Delta-E=       -0.000000000095 Rises=F Damp=F
 DIIS: error= 9.46D-08 at cycle  13 NSaved=  13.
 NSaved=13 IEnMin=13 EnMin= -785.107737507211     IErMin=13 ErrMin= 9.46D-08
 ErrMax= 9.46D-08  0.00D+00 EMaxC= 1.00D-01 BMatC= 7.78D-12 BMatP= 7.75D-11
 IDIUse=1 WtCom= 1.00D+00 WtEn= 0.00D+00
 Coeff-Com: -0.164D-06 0.489D-05-0.561D-05-0.351D-04-0.200D-03-0.403D-03
 Coeff-Com: -0.145D-02-0.342D-02-0.493D-02 0.180D-02 0.906D-01 0.358D+00
 Coeff-Com:  0.560D+00
 Coeff:     -0.164D-06 0.489D-05-0.561D-05-0.351D-04-0.200D-03-0.403D-03
 Coeff:     -0.145D-02-0.342D-02-0.493D-02 0.180D-02 0.906D-01 0.358D+00
 Coeff:      0.560D+00
 Gap=     0.147 Goal=   None    Shift=    0.000
 RMSDP=1.31D-08 MaxDP=6.88D-07 DE=-9.48D-11 OVMax= 2.19D-06

 Cycle  14  Pass 1  IDiag  1:
 RMSU=  9.66D-09    CP:  9.79D-01  8.42D-01  6.16D-01  7.07D-01  6.41D-01
                    CP:  6.53D-01  6.89D-01  8.21D-01  7.99D-01  8.28D-01
                    CP:  7.01D-01  8.75D-01  7.29D-01
 E= -785.107737507233     Delta-E=       -0.000000000023 Rises=F Damp=F
 DIIS: error= 5.26D-08 at cycle  14 NSaved=  14.
 NSaved=14 IEnMin=14 EnMin= -785.107737507233     IErMin=14 ErrMin= 5.26D-08
 ErrMax= 5.26D-08  0.00D+00 EMaxC= 1.00D-01 BMatC= 1.58D-12 BMatP= 7.78D-12
 IDIUse=1 WtCom= 1.00D+00 WtEn= 0.00D+00
 Coeff-Com: -0.181D-06 0.107D-05 0.222D-05 0.747D-05-0.202D-04-0.250D-04
 Coeff-Com: -0.302D-03-0.166D-02-0.459D-02-0.109D-01 0.865D-02 0.912D-01
 Coeff-Com:  0.343D+00 0.575D+00
 Coeff:     -0.181D-06 0.107D-05 0.222D-05 0.747D-05-0.202D-04-0.250D-04
 Coeff:     -0.302D-03-0.166D-02-0.459D-02-0.109D-01 0.865D-02 0.912D-01
 Coeff:      0.343D+00 0.575D+00
 Gap=     0.147 Goal=   None    Shift=    0.000
 RMSDP=5.70D-09 MaxDP=3.20D-07 DE=-2.25D-11 OVMax= 9.03D-07

 Error on total polarization charges =  0.00653
 SCF Done:  E(RB3LYP) =  -785.107737507     A.U. after   14 cycles
            NFock= 14  Conv=0.57D-08     -V/T= 2.0065
 KE= 7.800112851389D+02 PE=-4.214951056811D+03 EE= 1.459205200652D+03
 Leave Link  502 at Mon Mar 20 17:41:24 2017, MaxMem=   402653184 cpu:      1186.5
 (Enter /n/sw/g09_D.01/g09/l801.exe)
 DoSCS=F DFT=T ScalE2(SS,OS)=  1.000000  1.000000
 Range of M.O.s used for correlation:     1   309
 NBasis=   309 NAE=    61 NBE=    61 NFC=     0 NFV=     0
 NROrb=    309 NOA=    61 NOB=    61 NVA=   248 NVB=   248
 Leave Link  801 at Mon Mar 20 17:41:24 2017, MaxMem=   402653184 cpu:         0.3
 (Enter /n/sw/g09_D.01/g09/l1101.exe)
 Using compressed storage, NAtomX=    33.
 Will process     34 centers per pass.
 R6Disp: Adding Grimme-D3(BJ) dispersion energy 1st derivatives to the gradient.
 Leave Link 1101 at Mon Mar 20 17:41:24 2017, MaxMem=   402653184 cpu:         5.4
 (Enter /n/sw/g09_D.01/g09/l1102.exe)
 Symmetrizing basis deriv contribution to polar:
 IMax=3 JMax=2 DiffMx= 0.00D+00
 Leave Link 1102 at Mon Mar 20 17:41:25 2017, MaxMem=   402653184 cpu:         0.8
 (Enter /n/sw/g09_D.01/g09/l1110.exe)
 Forming Gx(P) for the SCF density, NAtomX=    33.
 Integral derivatives from FoFJK, PRISM(SPDF).
 Do as many integral derivatives as possible in FoFJK.
 G2DrvN: MDV=     402652816.
 G2DrvN: will do    34 centers at a time, making    1 passes.
 Calling FoFCou, ICntrl=  3107 FMM=F I1Cent=   0 AccDes= 0.00D+00.
 FoFJK:  IHMeth= 1 ICntrl=    3107 DoSepK=F KAlg= 0 I1Cent=   0 FoldK=F
 IRaf=         0 NMat=   1 IRICut=       1 DoRegI=T DoRafI=F ISym2E= 0.
 FoFCou: FMM=F IPFlag=           0 FMFlag=      100000 FMFlg1=           0
         NFxFlg=           0 DoJE=F BraDBF=F KetDBF=F FulRan=T
         wScrn=  0.000000 ICntrl=    3107 IOpCl=  0 I1Cent=           0 NGrid=           0
         NMat0=    1 NMatS0=      1 NMatT0=    0 NMatD0=    1 NMtDS0=    0 NMtDT0=    0
 Symmetry not used in FoFCou.
 NEqPCM:  Using equilibrium solvation (IEInf=0, Eps=   2.2099, EpsInf=   2.0232)
 G2PCM: DoFxE=T DoFxN=T DoGrad=T DoDP/DQ/DG/TGxP=FFFF NFrqRd=   0 IEInf=0 SqF1=F DoCFld=F IF1Alg=4.
 GePol: Maximum number of non-zero 1st derivatives   =     228
 End of G2Drv F.D. properties file   721 does not exist.
 End of G2Drv F.D. properties file   722 does not exist.
 End of G2Drv F.D. properties file   788 does not exist.
 Leave Link 1110 at Mon Mar 20 17:44:30 2017, MaxMem=   402653184 cpu:      1485.8
 (Enter /n/sw/g09_D.01/g09/l1002.exe)
 Minotr:  Closed shell wavefunction.
          IDoAtm=111111111111111111111111111111111
 NEqPCM:  Using equilibrium solvation (IEInf=0, Eps=   2.2099, EpsInf=   2.0232)
          Direct CPHF calculation.
          Differentiating once with respect to nuclear coordinates.
          Requested convergence is 1.0D-08 RMS, and 1.0D-07 maximum.
          Secondary convergence is 1.0D-12 RMS, and 1.0D-12 maximum.
          NewPWx=T KeepS1=F KeepF1=F KeepIn=T MapXYZ=F SortEE=F KeepMc=T.
          MDV=     402652541 using IRadAn=       2.
 Generate precomputed XC quadrature information.
          Solving linear equations simultaneously, MaxMat=       0.
 FoFJK:  IHMeth= 1 ICntrl=       0 DoSepK=F KAlg= 0 I1Cent=   0 FoldK=F
 IRaf= 870000000 NMat= 102 IRICut=     255 DoRegI=T DoRafI=T ISym2E= 2.
 FoFCou: FMM=F IPFlag=           0 FMFlag=      100000 FMFlg1=           0
         NFxFlg=           0 DoJE=F BraDBF=F KetDBF=F FulRan=T
         wScrn=  0.000000 ICntrl=       0 IOpCl=  0 I1Cent=           0 NGrid=           0
         NMat0=  102 NMatS0=    102 NMatT0=    0 NMatD0=  102 NMtDS0=    0 NMtDT0=    0
 Integrals replicated using symmetry in FoFCou.
          There are   102 degrees of freedom in the 1st order CPHF.  IDoFFX=6 NUNeed=     0.
     96 vectors produced by pass  0 Test12= 1.51D-14 1.00D-09 XBig12= 1.58D-01 1.41D-01.
 AX will form    96 AO Fock derivatives at one time.
     96 vectors produced by pass  1 Test12= 1.51D-14 1.00D-09 XBig12= 2.89D-02 3.53D-02.
     96 vectors produced by pass  2 Test12= 1.51D-14 1.00D-09 XBig12= 2.21D-04 2.73D-03.
     96 vectors produced by pass  3 Test12= 1.51D-14 1.00D-09 XBig12= 7.65D-07 1.14D-04.
     96 vectors produced by pass  4 Test12= 1.51D-14 1.00D-09 XBig12= 1.17D-09 2.87D-06.
     79 vectors produced by pass  5 Test12= 1.51D-14 1.00D-09 XBig12= 1.22D-12 9.07D-08.
      4 vectors produced by pass  6 Test12= 1.51D-14 1.00D-09 XBig12= 1.07D-15 2.49D-09.
 InvSVY:  IOpt=1 It=  1 EMax= 7.22D-16
 Solved reduced A of dimension   563 with   102 vectors.
 End of Minotr F.D. properties file   721 does not exist.
 End of Minotr F.D. properties file   722 does not exist.
 End of Minotr F.D. properties file   788 does not exist.
 Leave Link 1002 at Mon Mar 20 17:52:09 2017, MaxMem=   402653184 cpu:      3670.7
 (Enter /n/sw/g09_D.01/g09/l601.exe)
 Copying SCF densities to generalized density rwf, IOpCl= 0 IROHF=0.

 **********************************************************************

            Population analysis using the SCF density.

 **********************************************************************

 Orbital symmetries:
       Occupied  (A) (A) (A) (A) (A) (A) (A) (A) (A) (A) (A) (A)
                 (A) (A) (A) (A) (A) (A) (A) (A) (A) (A) (A) (A)
                 (A) (A) (A) (A) (A) (A) (A) (A) (A) (A) (A) (A)
                 (A) (A) (A) (A) (A) (A) (A) (A) (A) (A) (A) (A)
                 (A) (A) (A) (A) (A) (A) (A) (A) (A) (A) (A) (A)
                 (A)
       Virtual   (A) (A) (A) (A) (A) (A) (A) (A) (A) (A) (A) (A)
                 (A) (A) (A) (A) (A) (A) (A) (A) (A) (A) (A) (A)
                 (A) (A) (A) (A) (A) (A) (A) (A) (A) (A) (A) (A)
                 (A) (A) (A) (A) (A) (A) (A) (A) (A) (A) (A) (A)
                 (A) (A) (A) (A) (A) (A) (A) (A) (A) (A) (A) (A)
                 (A) (A) (A) (A) (A) (A) (A) (A) (A) (A) (A) (A)
                 (A) (A) (A) (A) (A) (A) (A) (A) (A) (A) (A) (A)
                 (A) (A) (A) (A) (A) (A) (A) (A) (A) (A) (A) (A)
                 (A) (A) (A) (A) (A) (A) (A) (A) (A) (A) (A) (A)
                 (A) (A) (A) (A) (A) (A) (A) (A) (A) (A) (A) (A)
                 (A) (A) (A) (A) (A) (A) (A) (A) (A) (A) (A) (A)
                 (A) (A) (A) (A) (A) (A) (A) (A) (A) (A) (A) (A)
                 (A) (A) (A) (A) (A) (A) (A) (A) (A) (A) (A) (A)
                 (A) (A) (A) (A) (A) (A) (A) (A) (A) (A) (A) (A)
                 (A) (A) (A) (A) (A) (A) (A) (A) (A) (A) (A) (A)
                 (A) (A) (A) (A) (A) (A) (A) (A) (A) (A) (A) (A)
                 (A) (A) (A) (A) (A) (A) (A) (A) (A) (A) (A) (A)
                 (A) (A) (A) (A) (A) (A) (A) (A) (A) (A) (A) (A)
                 (A) (A) (A) (A) (A) (A) (A) (A) (A) (A) (A) (A)
                 (A) (A) (A) (A) (A) (A) (A) (A) (A) (A) (A) (A)
                 (A) (A) (A) (A) (A) (A) (A) (A)
 The electronic state is 1-A.
 Alpha  occ. eigenvalues --  -19.18457 -19.16100 -19.12662 -19.10099 -14.38317
 Alpha  occ. eigenvalues --  -10.34273 -10.28852 -10.24902 -10.24196 -10.21992
 Alpha  occ. eigenvalues --  -10.20073 -10.19798 -10.19542 -10.18521 -10.18263
 Alpha  occ. eigenvalues --  -10.17775  -1.11610  -1.07718  -1.02314  -0.98673
 Alpha  occ. eigenvalues --   -0.95723  -0.82041  -0.77986  -0.77249  -0.73080
 Alpha  occ. eigenvalues --   -0.70116  -0.67292  -0.62781  -0.61965  -0.59579
 Alpha  occ. eigenvalues --   -0.56728  -0.54254  -0.53866  -0.50984  -0.50005
 Alpha  occ. eigenvalues --   -0.48775  -0.46990  -0.46429  -0.45818  -0.44514
 Alpha  occ. eigenvalues --   -0.44478  -0.43790  -0.41919  -0.40976  -0.40321
 Alpha  occ. eigenvalues --   -0.39607  -0.39260  -0.37986  -0.37309  -0.37105
 Alpha  occ. eigenvalues --   -0.35540  -0.35298  -0.34719  -0.33771  -0.32507
 Alpha  occ. eigenvalues --   -0.30375  -0.28438  -0.28017  -0.25795  -0.24368
 Alpha  occ. eigenvalues --   -0.20287
 Alpha virt. eigenvalues --   -0.05605  -0.00027   0.04402   0.05576   0.05904
 Alpha virt. eigenvalues --    0.06756   0.08072   0.08592   0.09701   0.10583
 Alpha virt. eigenvalues --    0.11691   0.11920   0.12207   0.13118   0.13238
 Alpha virt. eigenvalues --    0.13875   0.14329   0.14945   0.15462   0.16131
 Alpha virt. eigenvalues --    0.16631   0.18302   0.19862   0.20779   0.21231
 Alpha virt. eigenvalues --    0.23515   0.25691   0.27419   0.28260   0.28581
 Alpha virt. eigenvalues --    0.31260   0.31835   0.33101   0.34653   0.38006
 Alpha virt. eigenvalues --    0.40049   0.41461   0.42374   0.43222   0.43754
 Alpha virt. eigenvalues --    0.44131   0.45545   0.46084   0.47020   0.47200
 Alpha virt. eigenvalues --    0.47987   0.49037   0.49596   0.50165   0.51353
 Alpha virt. eigenvalues --    0.51656   0.52297   0.53728   0.55303   0.56550
 Alpha virt. eigenvalues --    0.57450   0.58595   0.60183   0.60285   0.61922
 Alpha virt. eigenvalues --    0.62399   0.62743   0.63209   0.64540   0.65229
 Alpha virt. eigenvalues --    0.65538   0.66010   0.66318   0.66829   0.66938
 Alpha virt. eigenvalues --    0.67358   0.68350   0.68501   0.69236   0.70117
 Alpha virt. eigenvalues --    0.70473   0.71400   0.72368   0.72881   0.73891
 Alpha virt. eigenvalues --    0.76538   0.76652   0.78442   0.79508   0.80852
 Alpha virt. eigenvalues --    0.84074   0.84929   0.87629   0.88743   0.90138
 Alpha virt. eigenvalues --    0.90625   0.92252   0.92930   0.94827   0.96502
 Alpha virt. eigenvalues --    0.96818   0.99588   1.00559   1.01799   1.02974
 Alpha virt. eigenvalues --    1.04252   1.05562   1.06393   1.08044   1.09405
 Alpha virt. eigenvalues --    1.10424   1.11049   1.12629   1.14782   1.16160
 Alpha virt. eigenvalues --    1.16857   1.17592   1.19134   1.20833   1.21627
 Alpha virt. eigenvalues --    1.23181   1.25606   1.26870   1.27222   1.28770
 Alpha virt. eigenvalues --    1.30107   1.30977   1.32837   1.34057   1.35571
 Alpha virt. eigenvalues --    1.37147   1.38386   1.41992   1.42270   1.43113
 Alpha virt. eigenvalues --    1.43957   1.45315   1.48579   1.49112   1.52594
 Alpha virt. eigenvalues --    1.53352   1.54351   1.55279   1.56551   1.57237
 Alpha virt. eigenvalues --    1.59241   1.59512   1.60347   1.61026   1.62006
 Alpha virt. eigenvalues --    1.62908   1.63847   1.65042   1.65157   1.66328
 Alpha virt. eigenvalues --    1.66510   1.66916   1.67305   1.67819   1.68721
 Alpha virt. eigenvalues --    1.69833   1.70281   1.70424   1.70646   1.72548
 Alpha virt. eigenvalues --    1.73346   1.73807   1.75239   1.76025   1.76360
 Alpha virt. eigenvalues --    1.77002   1.79459   1.79702   1.82109   1.83211
 Alpha virt. eigenvalues --    1.85390   1.86261   1.86693   1.87979   1.91012
 Alpha virt. eigenvalues --    1.92688   1.94178   1.94832   1.96327   1.96700
 Alpha virt. eigenvalues --    1.97458   1.98761   2.01211   2.02134   2.02592
 Alpha virt. eigenvalues --    2.05100   2.08011   2.09671   2.09899   2.11122
 Alpha virt. eigenvalues --    2.12170   2.13954   2.15802   2.18704   2.19441
 Alpha virt. eigenvalues --    2.22491   2.22573   2.23211   2.23488   2.24710
 Alpha virt. eigenvalues --    2.28331   2.29668   2.33385   2.33838   2.34133
 Alpha virt. eigenvalues --    2.35664   2.38919   2.43070   2.43512   2.45682
 Alpha virt. eigenvalues --    2.46203   2.46469   2.48169   2.48920   2.49919
 Alpha virt. eigenvalues --    2.53095   2.54926   2.57088   2.58472   2.59589
 Alpha virt. eigenvalues --    2.63340   2.63920   2.65114   2.66370   2.67741
 Alpha virt. eigenvalues --    2.74170   2.75060   2.76700   2.80598   2.83626
 Alpha virt. eigenvalues --    2.91005   2.91844   2.92845   2.94247   2.99861
 Alpha virt. eigenvalues --    3.03159   3.04568   3.16030   3.18294   3.19266
 Alpha virt. eigenvalues --    3.19936   3.29324   3.40994   3.41545   3.50941
 Alpha virt. eigenvalues --    3.54572   3.56812   3.59959
          Condensed to atoms (all electrons):
               1          2          3          4          5          6
     1  C    4.678988   0.384834   0.570203  -0.003235   0.007812   0.500952
     2  H    0.384834   0.732293  -0.059109  -0.016673   0.009727  -0.034074
     3  C    0.570203  -0.059109   4.713593   0.358682   0.364861  -0.042751
     4  H   -0.003235  -0.016673   0.358682   0.685121  -0.049488   0.011419
     5  H    0.007812   0.009727   0.364861  -0.049488   0.674765  -0.032131
     6  C    0.500952  -0.034074  -0.042751   0.011419  -0.032131   4.786292
     7  H   -0.034909  -0.018682   0.010075  -0.000099  -0.000553   0.384471
     8  C   -0.034168   0.011776  -0.029622  -0.000498   0.011272   0.495146
     9  H   -0.025523  -0.000072   0.010661  -0.000160   0.002805  -0.028838
    10  N    0.003905  -0.000083   0.000374  -0.000018   0.000259  -0.040258
    11  H    0.000070   0.000016  -0.000027  -0.000002   0.000106   0.008664
    12  C    0.000432   0.000006   0.000048  -0.000001   0.000013  -0.010951
    13  O    0.000918  -0.000019  -0.000006   0.000000   0.000000   0.004874
    14  O    0.000001   0.000000   0.000000   0.000000   0.000000   0.000335
    15  C   -0.037268  -0.000857  -0.033064   0.003632  -0.014502  -0.001867
    16  H    0.000834   0.000016  -0.000568  -0.000091   0.001982   0.000650
    17  C   -0.024703   0.000936   0.166951  -0.003808  -0.007823  -0.020697
    18  H    0.000287  -0.000302  -0.010154  -0.001030  -0.007920   0.001465
    19  H   -0.004648   0.002136  -0.015387  -0.003621   0.004247  -0.002277
    20  C   -0.000630   0.000026  -0.000398  -0.000067  -0.000345  -0.005017
    21  O    0.000148   0.000002   0.000018   0.000001   0.000007  -0.001599
    22  O    0.003078   0.000466  -0.000985  -0.000047   0.000005   0.002639
    23  C    0.000168   0.000015   0.000024  -0.000001   0.000001  -0.000237
    24  H    0.000041   0.000011   0.000007   0.000000   0.000000  -0.000003
    25  H    0.000020   0.000004  -0.000006   0.000000   0.000000   0.000081
    26  H   -0.000266  -0.000041  -0.000028   0.000001  -0.000001   0.000174
    27  C   -0.000001   0.000000   0.000000   0.000000   0.000000  -0.000036
    28  H    0.000000   0.000000   0.000000   0.000000   0.000000  -0.000003
    29  H    0.000000   0.000000   0.000000   0.000000   0.000000  -0.000015
    30  C    0.000000   0.000000   0.000000   0.000000   0.000000  -0.000001
    31  H    0.000000   0.000000   0.000000   0.000000   0.000000   0.000000
    32  H    0.000000   0.000000   0.000000   0.000000   0.000000   0.000000
    33  H    0.000000   0.000000   0.000000   0.000000   0.000000   0.000000
               7          8          9         10         11         12
     1  C   -0.034909  -0.034168  -0.025523   0.003905   0.000070   0.000432
     2  H   -0.018682   0.011776  -0.000072  -0.000083   0.000016   0.000006
     3  C    0.010075  -0.029622   0.010661   0.000374  -0.000027   0.000048
     4  H   -0.000099  -0.000498  -0.000160  -0.000018  -0.000002  -0.000001
     5  H   -0.000553   0.011272   0.002805   0.000259   0.000106   0.000013
     6  C    0.384471   0.495146  -0.028838  -0.040258   0.008664  -0.010951
     7  H    0.689254  -0.050729   0.008183  -0.010684  -0.000312   0.001047
     8  C   -0.050729   4.795874   0.380156   0.426839  -0.020790  -0.059898
     9  H    0.008183   0.380156   0.690372  -0.031504  -0.015890   0.006676
    10  N   -0.010684   0.426839  -0.031504   6.081437   0.360712   0.396056
    11  H   -0.000312  -0.020790  -0.015890   0.360712   0.568483  -0.026606
    12  C    0.001047  -0.059898   0.006676   0.396056  -0.026606   4.336926
    13  O    0.027164  -0.015552  -0.000280  -0.050340   0.003453   0.657151
    14  O    0.000400   0.001013  -0.000211  -0.058565   0.010721   0.397741
    15  C    0.000643   0.077879   0.002784  -0.012071  -0.000978  -0.002037
    16  H   -0.000103   0.000810  -0.004995   0.000681   0.001308  -0.000275
    17  C    0.000001  -0.011089  -0.004148   0.000880   0.000109   0.000059
    18  H    0.000030   0.000356   0.000124  -0.000036  -0.000009  -0.000002
    19  H   -0.000151   0.000900   0.000003  -0.000017   0.000005  -0.000011
    20  C   -0.000461  -0.003211  -0.003099  -0.007750   0.000936  -0.000122
    21  O   -0.000081  -0.006715   0.000142  -0.001055   0.003418   0.019038
    22  O    0.000653  -0.005369  -0.000012   0.000315   0.000038  -0.000180
    23  C    0.000015  -0.000139  -0.000002   0.000046   0.000001   0.000271
    24  H   -0.000031  -0.000005   0.000001  -0.000006  -0.000001   0.000086
    25  H    0.000023  -0.000094   0.000000   0.000036  -0.000010   0.000038
    26  H    0.000401   0.001616   0.000032  -0.000756  -0.000061  -0.002292
    27  C    0.000004  -0.000040   0.000018   0.004264  -0.000739  -0.054158
    28  H    0.000010  -0.000003   0.000000   0.000255   0.000162  -0.002824
    29  H   -0.000037   0.000002   0.000001   0.000049   0.000061   0.000755
    30  C   -0.000001   0.000007   0.000000   0.000075  -0.000213   0.003753
    31  H    0.000000  -0.000001   0.000000  -0.000049   0.000045   0.000349
    32  H    0.000000   0.000000   0.000000   0.000004   0.000006  -0.000092
    33  H    0.000000  -0.000001   0.000000  -0.000057   0.000124   0.000056
              13         14         15         16         17         18
     1  C    0.000918   0.000001  -0.037268   0.000834  -0.024703   0.000287
     2  H   -0.000019   0.000000  -0.000857   0.000016   0.000936  -0.000302
     3  C   -0.000006   0.000000  -0.033064  -0.000568   0.166951  -0.010154
     4  H    0.000000   0.000000   0.003632  -0.000091  -0.003808  -0.001030
     5  H    0.000000   0.000000  -0.014502   0.001982  -0.007823  -0.007920
     6  C    0.004874   0.000335  -0.001867   0.000650  -0.020697   0.001465
     7  H    0.027164   0.000400   0.000643  -0.000103   0.000001   0.000030
     8  C   -0.015552   0.001013   0.077879   0.000810  -0.011089   0.000356
     9  H   -0.000280  -0.000211   0.002784  -0.004995  -0.004148   0.000124
    10  N   -0.050340  -0.058565  -0.012071   0.000681   0.000880  -0.000036
    11  H    0.003453   0.010721  -0.000978   0.001308   0.000109  -0.000009
    12  C    0.657151   0.397741  -0.002037  -0.000275   0.000059  -0.000002
    13  O    7.681694  -0.052229   0.000119  -0.000005   0.000003   0.000000
    14  O   -0.052229   7.763005   0.000023  -0.000008   0.000000   0.000000
    15  C    0.000119   0.000023   4.976001   0.369493   0.488749   0.003594
    16  H   -0.000005  -0.000008   0.369493   0.726341  -0.042256  -0.015671
    17  C    0.000003   0.000000   0.488749  -0.042256   4.690922   0.350254
    18  H    0.000000   0.000000   0.003594  -0.015671   0.350254   0.687311
    19  H    0.000001   0.000000  -0.012240   0.009162   0.380017  -0.045701
    20  C    0.000682  -0.000153   0.424758  -0.032888  -0.047940   0.007371
    21  O   -0.001838  -0.001181  -0.051021   0.004298   0.005291  -0.000131
    22  O   -0.000055   0.000002  -0.075964   0.004209   0.006239   0.000179
    23  C   -0.007296   0.000049   0.009854  -0.000287  -0.000859   0.000016
    24  H   -0.000023  -0.000001  -0.000494   0.000015  -0.000123  -0.000002
    25  H   -0.000009   0.000002   0.000808  -0.000015  -0.000017   0.000010
    26  H    0.026462  -0.000461   0.000584  -0.000048   0.000088   0.000003
    27  C    0.005130   0.297075  -0.000003   0.000000   0.000000   0.000000
    28  H    0.009250  -0.029323   0.000000   0.000000   0.000000   0.000000
    29  H    0.001697  -0.028747   0.000005  -0.000001   0.000000   0.000000
    30  C    0.001119  -0.033242   0.000000   0.000000   0.000000   0.000000
    31  H   -0.000020   0.003881   0.000000   0.000000   0.000000   0.000000
    32  H    0.000039   0.003084   0.000000   0.000000   0.000000   0.000000
    33  H   -0.000015   0.003145   0.000000   0.000000   0.000000   0.000000
              19         20         21         22         23         24
     1  C   -0.004648  -0.000630   0.000148   0.003078   0.000168   0.000041
     2  H    0.002136   0.000026   0.000002   0.000466   0.000015   0.000011
     3  C   -0.015387  -0.000398   0.000018  -0.000985   0.000024   0.000007
     4  H   -0.003621  -0.000067   0.000001  -0.000047  -0.000001   0.000000
     5  H    0.004247  -0.000345   0.000007   0.000005   0.000001   0.000000
     6  C   -0.002277  -0.005017  -0.001599   0.002639  -0.000237  -0.000003
     7  H   -0.000151  -0.000461  -0.000081   0.000653   0.000015  -0.000031
     8  C    0.000900  -0.003211  -0.006715  -0.005369  -0.000139  -0.000005
     9  H    0.000003  -0.003099   0.000142  -0.000012  -0.000002   0.000001
    10  N   -0.000017  -0.007750  -0.001055   0.000315   0.000046  -0.000006
    11  H    0.000005   0.000936   0.003418   0.000038   0.000001  -0.000001
    12  C   -0.000011  -0.000122   0.019038  -0.000180   0.000271   0.000086
    13  O    0.000001   0.000682  -0.001838  -0.000055  -0.007296  -0.000023
    14  O    0.000000  -0.000153  -0.001181   0.000002   0.000049  -0.000001
    15  C   -0.012240   0.424758  -0.051021  -0.075964   0.009854  -0.000494
    16  H    0.009162  -0.032888   0.004298   0.004209  -0.000287   0.000015
    17  C    0.380017  -0.047940   0.005291   0.006239  -0.000859  -0.000123
    18  H   -0.045701   0.007371  -0.000131   0.000179   0.000016  -0.000002
    19  H    0.661212  -0.022383   0.000328   0.018562  -0.000800  -0.000223
    20  C   -0.022383   4.456275   0.667798   0.376889  -0.050755   0.003944
    21  O    0.000328   0.667798   7.741251  -0.065621   0.006033   0.001266
    22  O    0.018562   0.376889  -0.065621   7.780494   0.315950  -0.019653
    23  C   -0.000800  -0.050755   0.006033   0.315950   4.447982   0.389610
    24  H   -0.000223   0.003944   0.001266  -0.019653   0.389610   0.663591
    25  H    0.000069  -0.002406   0.011188  -0.030521   0.390776  -0.030954
    26  H    0.000216  -0.001876   0.001032  -0.028516   0.382431  -0.028051
    27  C    0.000000  -0.000016  -0.000296   0.000004  -0.000214   0.000001
    28  H    0.000000  -0.000003   0.000029   0.000000   0.000024   0.000000
    29  H    0.000000   0.000060   0.002246  -0.000034   0.000100   0.000001
    30  C    0.000000  -0.000003  -0.000046   0.000000  -0.000004   0.000000
    31  H    0.000000   0.000000  -0.000001   0.000000   0.000000   0.000000
    32  H    0.000000   0.000000  -0.000001   0.000000   0.000000   0.000000
    33  H    0.000000   0.000003   0.000039   0.000000   0.000001   0.000000
              25         26         27         28         29         30
     1  C    0.000020  -0.000266  -0.000001   0.000000   0.000000   0.000000
     2  H    0.000004  -0.000041   0.000000   0.000000   0.000000   0.000000
     3  C   -0.000006  -0.000028   0.000000   0.000000   0.000000   0.000000
     4  H    0.000000   0.000001   0.000000   0.000000   0.000000   0.000000
     5  H    0.000000  -0.000001   0.000000   0.000000   0.000000   0.000000
     6  C    0.000081   0.000174  -0.000036  -0.000003  -0.000015  -0.000001
     7  H    0.000023   0.000401   0.000004   0.000010  -0.000037  -0.000001
     8  C   -0.000094   0.001616  -0.000040  -0.000003   0.000002   0.000007
     9  H    0.000000   0.000032   0.000018   0.000000   0.000001   0.000000
    10  N    0.000036  -0.000756   0.004264   0.000255   0.000049   0.000075
    11  H   -0.000010  -0.000061  -0.000739   0.000162   0.000061  -0.000213
    12  C    0.000038  -0.002292  -0.054158  -0.002824   0.000755   0.003753
    13  O   -0.000009   0.026462   0.005130   0.009250   0.001697   0.001119
    14  O    0.000002  -0.000461   0.297075  -0.029323  -0.028747  -0.033242
    15  C    0.000808   0.000584  -0.000003   0.000000   0.000005   0.000000
    16  H   -0.000015  -0.000048   0.000000   0.000000  -0.000001   0.000000
    17  C   -0.000017   0.000088   0.000000   0.000000   0.000000   0.000000
    18  H    0.000010   0.000003   0.000000   0.000000   0.000000   0.000000
    19  H    0.000069   0.000216   0.000000   0.000000   0.000000   0.000000
    20  C   -0.002406  -0.001876  -0.000016  -0.000003   0.000060  -0.000003
    21  O    0.011188   0.001032  -0.000296   0.000029   0.002246  -0.000046
    22  O   -0.030521  -0.028516   0.000004   0.000000  -0.000034   0.000000
    23  C    0.390776   0.382431  -0.000214   0.000024   0.000100  -0.000004
    24  H   -0.030954  -0.028051   0.000001   0.000000   0.000001   0.000000
    25  H    0.674095  -0.036634  -0.000041  -0.000007   0.000207  -0.000001
    26  H   -0.036634   0.644962   0.000461  -0.000116   0.001210   0.000034
    27  C   -0.000041   0.000461   4.481472   0.382340   0.384027   0.444823
    28  H   -0.000007  -0.000116   0.382340   0.686672  -0.046583  -0.026374
    29  H    0.000207   0.001210   0.384027  -0.046583   0.674004  -0.025027
    30  C   -0.000001   0.000034   0.444823  -0.026374  -0.025027   4.482064
    31  H    0.000000   0.000001  -0.021788  -0.010613   0.009064   0.387043
    32  H    0.000000   0.000000  -0.012915  -0.001101  -0.000852   0.376709
    33  H   -0.000001  -0.000005  -0.017667   0.009000  -0.010588   0.386732
              31         32         33
     1  C    0.000000   0.000000   0.000000
     2  H    0.000000   0.000000   0.000000
     3  C    0.000000   0.000000   0.000000
[...]
 0.06026642,-0.02703597,0.04996067,0.07273777,-0.00009378,0.00002401,-0
 .00002667,0.00000571,-0.00000071,0.00000920,0.00006485,0.00005376,-0.0
 0004785,0.00001033,-0.00001963,0.00000365,0.00000022,-0.00000952,0.000
 00438,0.00015396,0.00003222,0.00014956,-0.00002276,-0.00002146,-0.0000
 2036,-0.00053384,-0.00017720,-0.00010569,0.00003412,0.00001932,-0.0000
 0336,0.00098971,-0.00089968,-0.00006042,-0.00014447,0.00014983,0.00005
 009,-0.00178755,0.00182230,-0.00112184,0.00115820,-0.00067913,0.000232
 60,0.01349264,0.00669922,-0.02200517,-0.00012120,0.00011588,0.00000152
 ,-0.00000520,-0.00000976,0.00000463,0.00003551,-0.00005684,0.00005394,
 0.00000377,0.00001335,-0.00000054,0.00000916,0.00000687,-0.00000546,0.
 00034430,-0.00011628,0.00002776,-0.00031365,0.00013562,-0.00002275,-0.
 00007128,0.00005529,-0.00001894,0.00003045,-0.00006013,-0.00001029,-0.
 00002571,0.00000208,-0.00000657,0.00002377,0.00005453,-0.00000382,-0.0
 0001513,-0.00005712,0.00006157,-0.03167732,-0.10395938,0.10458714,0.02
 450564,0.10472091,-0.00007081,-0.00004951,0.00000400,0.00001076,0.0000
 0302,0.00001023,0.00004071,0.00005021,-0.00002300,0.00000875,-0.000013
 53,0.00000511,-0.00000096,-0.00000517,0.00000426,0.00014389,0.00000629
 ,0.00005247,-0.00002248,0.00004482,-0.00002159,-0.00035701,-0.00011270
 ,-0.00008726,0.00005652,0.00000538,0.,0.00105799,-0.00005868,-0.000057
 05,-0.00010767,0.00022860,0.00015763,-0.00453001,0.00018075,-0.0031290
 3,-0.00115733,0.00059769,0.00166723,0.01312996,-0.00296036,-0.01104338
 ,-0.00004293,0.00001814,0.00002353,-0.00000822,-0.00000407,0.00000772,
 0.00002553,-0.00003708,0.00001187,0.00000846,0.00001517,-0.00000306,0.
 00000693,0.00000613,-0.00000268,-0.00007929,-0.00006832,-0.00013567,0.
 00008522,0.00008501,0.00004559,-0.00000065,0.00006979,0.00011385,0.000
 00998,-0.00004243,-0.00001861,0.00000835,0.00001452,0.00000479,0.00000
 081,0.00001974,-0.00000627,0.00001964,-0.00001806,-0.00000863,0.055115
 93,0.09936292,-0.24582096,-0.06232056,-0.10420690,0.26939077,0.0002764
 3,0.00005196,-0.00001438,-0.00000775,0.00000801,-0.00001490,-0.0001128
 2,-0.00017383,0.00017006,-0.00001078,0.00002918,-0.00001016,0.00000126
 ,0.00002110,-0.00000951,-0.00031554,-0.00008423,-0.00028556,-0.0000062
 3,-0.00002138,0.00001842,0.00090764,-0.00019200,0.00051765,-0.00006691
 ,0.00001232,0.00000529,-0.00239671,-0.00007787,0.00040866,0.00020073,0
 .00006006,-0.00009828,0.00579336,0.00260481,0.00409605,-0.00025596,-0.
 00051953,-0.00140872,-0.00420261,0.03511677,0.00740996,0.00041213,-0.0
 0018088,0.00001065,0.00001029,0.00002099,-0.00001412,-0.00016300,0.000
 11564,-0.00014248,-0.00000436,-0.00004097,0.00000522,-0.00001955,-0.00
 002300,0.00001224,-0.00086642,0.00024778,-0.00029877,0.00060535,0.0000
 1472,0.00003969,0.00018450,-0.00002378,-0.00002924,-0.00008042,-0.0000
 5080,0.00003067,0.00003752,0.00001018,0.00000789,-0.00004947,-0.000083
 13,-0.00002019,-0.00018115,-0.00004568,-0.00016243,-0.08120500,-0.0949
 7806,-0.01529541,-0.00090585,-0.00689539,-0.00232095,0.09201570,-0.000
 16290,0.00000132,-0.00002851,0.00001179,-0.00000298,0.00001476,0.00011
 233,0.00010016,-0.00008915,0.00001282,-0.00003617,0.00001261,-0.000002
 66,-0.00001193,0.00000876,0.00020595,0.00004287,0.00015556,-0.00002276
 ,-0.00001967,-0.00000667,-0.00066209,0.00010751,-0.00030753,0.00006743
 ,0.00000957,-0.00000066,0.00178147,-0.00052648,0.00022761,-0.00024330,
 -0.00006252,0.00019493,-0.00592553,-0.00031459,-0.00602753,-0.00004176
 ,0.00145147,0.00247722,0.01079709,-0.01927714,-0.00611263,-0.00023453,
 0.00018905,0.00001169,-0.00000832,-0.00000050,0.00000749,0.00007384,-0
 .00011571,0.00012260,-0.00000067,0.00002191,0.00000172,0.00002257,0.00
 001357,-0.00001487,0.00056446,-0.00023711,-0.00014563,-0.00049818,-0.0
 0003353,0.00014274,-0.00020966,0.00011254,0.00016987,0.00016257,0.0000
 7661,-0.00022559,-0.00005251,-0.00002838,0.00000970,0.00002177,0.00003
 697,-0.00000033,-0.00001547,-0.00017022,0.00013992,-0.08685893,-0.2718
 2690,-0.03384540,-0.00608618,-0.01077285,-0.00158980,0.08691513,0.2960
 3562,-0.00013046,-0.00000867,-0.00002638,0.00000356,-0.00000214,0.0000
 0791,0.00006751,0.00009267,-0.00008671,0.00000977,-0.00001696,0.000004
 19,-0.00000151,-0.00001209,0.00000555,0.00014333,0.00003057,0.00014284
 ,-0.00005372,0.00000751,-0.00003555,-0.00039233,0.00008319,-0.00017524
 ,0.00004265,0.00000253,-0.00000355,0.00095784,-0.00013118,-0.00022286,
 -0.00011491,-0.00007974,0.00005493,-0.00300503,0.00080354,-0.00030503,
 0.00092342,-0.00056319,0.00067493,0.00343644,-0.01848621,-0.00347432,-
 0.00025353,0.00009891,-0.00003058,-0.00000059,-0.00001477,0.00000063,0
 .00008700,-0.00006969,0.00009264,-0.00000011,0.00001982,-0.00000347,0.
 00000705,0.00001043,-0.00001003,0.00059501,-0.00006154,0.00046578,-0.0
 0086064,0.00009945,-0.00043400,-0.00003438,-0.00004042,-0.00023823,-0.
 00010432,-0.00010309,0.00015743,0.00001347,0.00002300,-0.00001620,0.00
 003251,0.00004560,0.00001851,-0.00017267,-0.00002760,-0.00014428,-0.01
 338582,-0.03021610,-0.05558627,0.00885749,0.02486625,0.00471231,0.0139
 2206,0.04370783,0.05817567,0.00007745,-0.00000486,-0.00000923,-0.00000
 847,-0.00000061,-0.00000717,-0.00004057,-0.00004302,0.00004333,-0.0000
 0485,0.00001080,-0.00000632,0.00000297,0.00000587,-0.00000814,-0.00007
 774,-0.00002449,-0.00005014,-0.00000527,0.00000857,-0.00001464,0.00022
 375,0.00024692,0.00039645,-0.00011926,-0.00001061,-0.00002567,-0.00180
 145,0.00020757,-0.00092012,0.00002210,-0.00002525,-0.00012240,-0.00091
 096,0.00235394,0.00529674,0.00084329,-0.00064555,-0.00161090,-0.039303
 24,0.00874126,-0.01845340,0.00010100,-0.00006611,-0.00001461,0.0000054
 8,0.00000745,-0.00000724,-0.00003691,0.00004361,-0.00003746,-0.0000033
 6,-0.00001165,0.00000068,-0.00000698,-0.00000632,0.00000450,-0.0001752
 6,0.00009895,0.00004623,0.00016421,-0.00005430,0.00002587,0.00004776,-
 0.00004850,-0.00005980,-0.00003711,0.00001185,0.00002456,0.00000572,-0
 .00000292,-0.00000146,0.00000187,-0.00001070,-0.00000219,-0.00001067,0
 .00000939,-0.00000068,-0.14664725,-0.00809006,-0.06787502,0.00748035,-
 0.00039561,0.00424832,-0.00786543,0.00033161,-0.00811832,0.52873397,-0
 .00011588,-0.00001282,-0.00000441,0.00001088,0.00000116,0.00001197,0.0
 0006706,0.00006889,-0.00005888,0.00001098,-0.00001864,0.00000749,-0.00
 000305,-0.00000682,0.00000732,0.00014464,0.00003440,0.00012377,-0.0000
 2033,0.00000211,-0.00000946,-0.00042656,-0.00019628,-0.00049192,0.0001
 3557,0.00000636,0.00001589,0.00201786,-0.00031459,0.00073315,-0.000041
 80,0.00011752,0.00008074,0.00060893,-0.00218140,-0.00422956,0.00000830
 ,0.00135179,0.00116263,0.02638609,-0.00294872,0.01382709,-0.00012911,0
 .00009498,0.00002137,-0.00001172,-0.00000317,0.00001298,0.00005172,-0.
 00006074,0.00005371,0.00000580,0.00001976,-0.00000151,0.00001447,0.000
 00932,-0.00000540,0.00021292,-0.00018992,-0.00018767,-0.00017782,0.000
 10912,0.00011962,-0.00011181,0.00012873,0.00019646,0.00013522,-0.00002
 516,-0.00011028,-0.00003596,-0.00000649,0.00000583,0.00002207,0.000062
 55,-0.00000976,0.00005190,-0.00005412,0.00008389,-0.01450266,-0.080079
 38,-0.00532636,0.01133018,0.00060660,0.00883202,-0.02335601,0.00303507
 ,-0.01960172,-0.00218131,0.57357005,-0.00015558,-0.00001284,-0.0000094
 4,0.00001165,0.00000154,0.00001319,0.00008814,0.00008761,-0.00007147,0
 .00001426,-0.00002710,0.00000967,-0.00000134,-0.00001262,0.00001045,0.
 00019676,0.00004781,0.00016177,-0.00002742,-0.00000089,-0.00000926,-0.
 00066089,-0.00024176,-0.00057159,0.00015439,0.00001681,0.00001765,0.00
 233604,-0.00054462,0.00073858,-0.00002741,0.00005203,0.00017165,0.0000
 2935,-0.00207148,-0.00516373,-0.00129724,0.00088408,0.00189026,0.01707
 675,-0.00188306,0.01264195,-0.00012575,0.00012199,0.00005376,-0.000003
 54,-0.00002131,0.00000572,0.00006543,-0.00008535,0.00004346,0.00001495
 ,0.00002423,-0.00000221,0.00000868,0.00001111,-0.00000792,0.00020950,-
 0.00015833,-0.00008037,-0.00010082,0.00013138,-0.00011747,-0.00003569,
 0.00007034,0.00004523,0.00000659,-0.00005151,0.00000337,0.00000886,0.0
 0001659,0.00000160,-0.00000874,0.00001379,0.00000168,-0.00000829,-0.00
 000400,-0.00001845,-0.08001987,0.00004153,-0.14979472,-0.02310273,-0.0
 0179059,-0.01571323,-0.00325653,0.00099690,-0.00319942,-0.04106258,0.0
 0123599,0.54141918,-0.00003436,0.00000673,0.00000007,0.00000206,-0.000
 00196,0.00000281,0.00001553,0.00001902,-0.00002541,0.00000081,-0.00000
 392,0.00000189,-0.00000066,-0.00000237,0.00000303,0.00003267,0.0000124
 7,0.00002325,0.00000178,-0.00000749,0.00000552,-0.00010828,-0.00001040
 ,-0.00004074,0.00000441,0.00000012,-0.00000014,0.00019149,-0.00000912,
 0.00007326,-0.00005816,-0.00003761,0.00000586,-0.00034607,-0.00007908,
 -0.00098040,-0.00017553,0.00037121,0.00052174,0.00306305,-0.00029632,0
 .00108632,-0.00006363,0.00003819,0.00000062,-0.00000302,-0.00000145,0.
 00000422,0.00002169,-0.00001910,0.00002803,-0.00000156,0.00000430,0.00
 000055,0.00000553,0.00000303,-0.00000186,0.00015928,-0.00007567,-0.000
 03583,-0.00015408,0.00003662,0.00002571,-0.00006031,0.00003608,0.00004
 922,0.00005399,-0.00000421,-0.00003456,-0.00001446,-0.00000329,-0.0000
 0039,0.00000719,0.00002111,-0.00000199,0.00001872,-0.00001495,0.000031
 08,-0.00973730,-0.02578644,-0.00437325,0.00095857,0.00074690,0.0005676
 1,-0.00325728,0.00061106,-0.00352515,-0.06947763,-0.07502140,-0.012657
 98,0.07378373,0.00000932,0.00001775,0.00000015,-0.00000128,-0.00000356
 ,-0.00000150,-0.00000836,-0.00000535,-0.00000727,-0.00000429,0.0000046
 9,-0.00000136,-0.00000023,0.00000043,0.00000064,-0.00003105,-0.0000035
 5,-0.00002255,0.00000784,-0.00000842,0.00000822,0.00009353,0.00000929,
 0.00006968,-0.00001870,-0.00000285,-0.00000031,-0.00030108,0.00010709,
 0.00001134,-0.00000987,-0.00004054,-0.00002747,0.00045332,0.00003773,0
 .00027110,-0.00004677,-0.00003854,0.00003101,-0.00081620,0.00121874,0.
 00015981,-0.00003419,0.00001097,-0.00000668,0.00000061,0.00000124,-0.0
 0000002,0.00000824,0.00000008,0.00001694,-0.00000522,-0.00000273,0.000
 00186,0.00000176,-0.00000061,-0.00000030,0.00012796,-0.00003286,0.0000
 1150,-0.00011668,0.00001714,-0.00000785,-0.00004498,0.00000749,0.00000
 046,0.00003340,-0.00000505,-0.00000597,-0.00000867,-0.00000244,-0.0000
 0376,0.00000676,0.00001162,-0.00000167,0.00000512,-0.00000575,0.000014
 02,0.00155399,-0.00019350,0.00022466,-0.00019010,0.00082299,-0.0004550
 0,0.00050532,0.00143230,-0.00027174,-0.07786438,-0.28247592,-0.0397342
 2,0.08464625,0.30332946,0.00001766,0.00001648,0.00000425,-0.00000214,-
 0.00000268,-0.00000245,-0.00001266,-0.00001083,0.00000088,-0.00000446,
 0.00000493,-0.00000144,0.00000020,0.00000079,-0.00000029,-0.00003830,-
 0.00000916,-0.00003627,0.00001118,-0.00000742,0.00001255,0.00012045,-0
 .00000489,0.00005280,-0.00001048,-0.00000173,0.00000208,-0.00024985,0.
 00007618,0.00007894,0.00002341,-0.00000471,0.00000247,0.00060320,-0.00
 020401,-0.00020502,-0.00024196,0.00027263,0.00000139,0.00127275,0.0009
 3687,0.00086286,-0.00001204,-0.00000050,-0.00000732,0.00000023,0.00000
 503,-0.00000043,-0.00000062,0.00000700,0.00000777,-0.00000438,-0.00000
 326,0.00000192,0.00000082,-0.00000094,-0.00000029,0.00006498,-0.000010
 07,-0.00000197,-0.00009233,-0.00002397,0.00005088,-0.00003731,0.000001
 02,0.00001897,0.00004031,0.00001991,-0.00003194,-0.00001536,-0.0000099
 0,-0.00000084,0.00000912,0.00001110,-0.00000223,0.00001646,-0.00001012
 ,0.00003306,-0.00651461,-0.02402963,-0.00495095,0.00083341,-0.00037535
 ,0.00067717,-0.00401729,0.00069218,-0.00193534,-0.01317586,-0.03699038
 ,-0.05321223,0.01791801,0.04390505,0.05573835,0.00009909,0.00002843,0.
 00001311,-0.00000883,-0.00000251,-0.00001102,-0.00005791,-0.00005734,0
 .00003846,-0.00001297,0.00001926,-0.00000622,0.00000113,0.00000684,-0.
 00000618,-0.00014301,-0.00003779,-0.00012970,0.00003121,-0.00000357,0.
 00002775,0.00046576,0.00010900,0.00032530,-0.00007740,-0.00000771,-0.0
 0000861,-0.00127484,0.00026161,-0.00025795,0.00004493,-0.00004923,-0.0
 0006166,0.00151398,0.00053865,0.00216508,-0.00020158,-0.00030658,-0.00
 084053,-0.00632181,0.00067656,-0.00514632,0.00005699,-0.00006495,-0.00
 002902,0.00000791,0.00000905,-0.00000907,-0.00003289,0.00005065,-0.000
 02008,-0.00001067,-0.00001697,0.00000317,-0.00000803,-0.00000725,0.000
 00340,0.00001231,0.00011506,0.00015219,-0.00005718,-0.00009999,-0.0000
 0324,0.00001447,-0.00010202,-0.00013098,-0.00003504,0.00006178,0.00002
 437,-0.00000904,-0.00001399,-0.00000653,0.00000184,-0.00001942,0.00000
 959,0.00000095,0.00003039,0.00001229,-0.01505410,0.01246152,0.01320399
 ,0.00074084,0.00024274,-0.00033596,0.00041283,-0.00069771,0.00027251,-
 0.20267851,0.10837532,0.07282346,0.00860783,-0.00538191,-0.00412493,0.
 22017765,-0.00001703,-0.00000614,-0.00000567,0.00000188,0.00000176,0.0
 0000242,0.00001055,0.00000842,-0.00000327,0.00000357,-0.00000436,0.000
 00105,0.00000011,-0.00000167,0.00000150,0.00003092,0.00000821,0.000027
 07,-0.00000846,-0.00000306,-0.00000780,-0.00012143,-0.00002792,-0.0000
 2741,0.00000283,-0.00000011,0.00000128,0.00009736,-0.00007795,-0.00000
 364,-0.00002189,-0.00000672,0.00000386,-0.00045075,0.00067059,-0.00037
 163,0.00006344,-0.00008320,0.00017267,-0.00008021,0.00117787,0.0002968
 6,0.00000011,0.00001069,0.00000574,-0.00000120,-0.00000276,0.00000173,
 0.00000083,-0.00000678,-0.00000164,0.00000265,0.00000286,-0.00000115,0
 .00000064,0.00000130,-0.00000040,-0.00002545,-0.00000855,-0.00002314,0
 .00003229,0.00000665,-0.00000551,0.00001042,0.00001042,0.00001336,-0.0
 0000796,-0.00000443,-0.00000242,0.00000550,0.00000321,0.00000260,-0.00
 000406,-0.00000377,0.00000050,-0.00000496,-0.00000168,-0.00000889,-0.0
 0171986,-0.00192474,0.00010009,0.00000028,0.00009797,0.00021138,0.0002
 6212,0.00024331,0.00034871,0.11014534,-0.11938576,-0.05249468,0.022754
 52,-0.01366497,-0.00983578,-0.11997349,0.12598812,0.00004221,0.0000024
 8,0.00000383,-0.00000391,-0.00000091,-0.00000382,-0.00002635,-0.000025
 15,0.00001952,-0.00000391,0.00000739,-0.00000237,0.00000059,0.00000377
 ,-0.00000299,-0.00005686,-0.00001246,-0.00004703,0.00001091,0.00000123
 ,0.00000667,0.00016024,0.00009784,0.00018949,-0.00005770,-0.00000351,-
 0.00000924,-0.00085431,0.00018596,-0.00028074,-0.00001267,-0.00002647,
 -0.00007440,-0.00017177,0.00051704,0.00176395,0.00015251,-0.00015979,-
 0.00038998,-0.00609384,0.00080576,-0.00294048,0.00003814,-0.00003642,-
 0.00001837,-0.00000059,0.00000468,-0.00000060,-0.00001873,0.00002588,-
 0.00001298,-0.00000380,-0.00000722,0.00000029,-0.00000213,-0.00000321,
 0.00000313,-0.00007060,0.00004201,0.00001815,0.00004126,-0.00002660,0.
 00003337,0.00001830,-0.00001689,-0.00001064,-0.00000423,0.00000508,0.0
 0000632,-0.00000177,-0.00000337,-0.00000071,-0.00000004,-0.00000490,0.
 00000030,-0.00000292,0.00001066,0.00000164,-0.01373657,0.01199481,0.00
 850574,0.00083492,0.00025549,0.00047112,0.00048233,-0.00031565,0.00068
 254,0.07615425,-0.05395185,-0.08229343,0.00327443,-0.00154252,-0.00273
 404,-0.07985172,0.05754764,0.08557489,-0.00000545,-0.00000492,0.000008
 47,0.00000173,0.00000164,0.00000128,0.00000148,-0.00000036,0.00000331,
 0.00000166,-0.00000253,0.00000142,0.00000026,0.00000023,0.00000073,0.0
 0002083,0.00000176,-0.00000381,0.00000322,-0.00000019,0.00000799,-0.00
 005366,-0.00002055,-0.00003389,0.00000926,0.00000341,0.00000093,0.0001
 6360,-0.00003257,0.00011003,-0.00004158,0.00004008,0.00001436,-0.00034
 641,-0.00033701,-0.00100319,-0.00048598,0.00023629,0.00051907,0.003038
 21,-0.00088732,0.00087804,0.00002272,-0.00000663,0.00000318,-0.0000028
 9,-0.00000008,0.00000358,-0.00000595,0.00000247,-0.00000886,0.00000295
 ,0.00000100,-0.00000059,0.00000129,0.00000016,0.00000103,-0.00012163,0
 .00000059,-0.00007978,0.00014351,0.00000800,0.00006763,0.00002010,0.00
 002801,0.00007452,0.00002018,-0.00000649,-0.00001957,0.00000116,0.0000
 0058,0.00000459,-0.00000435,-0.00000117,-0.00000133,-0.00000031,0.0000
 0344,-0.00000177,0.00678645,0.01206495,-0.02514608,-0.00373285,0.00025
 089,-0.00319052,0.00111546,0.00003127,0.00078189,-0.06849899,-0.033454
 48,0.06950760,-0.00343600,-0.00256947,0.00762237,-0.00620592,-0.010988
 60,0.01976433,0.07158790,0.00002533,0.00000439,0.00000015,-0.00000280,
 -0.00000032,-0.00000337,-0.00001233,-0.00001288,0.00001249,-0.00000257
 ,0.00000369,-0.00000140,0.00000028,0.00000089,-0.00000170,-0.00003823,
 -0.00000864,-0.00003220,0.00000365,-0.00000061,0.00000347,0.00012120,0
 .00001563,0.00003541,-0.00000388,-0.00000263,0.00000302,-0.00018418,0.
 00005058,0.00000037,0.00006793,-0.00002532,0.00002968,0.00051360,-0.00
 004940,0.00025602,-0.00014438,-0.00010532,-0.00030393,-0.00075776,0.00
 012393,0.00017311,0.00002636,-0.00001796,0.00000179,0.00000511,0.00000
 165,-0.00000522,-0.00000867,0.00000926,-0.00001157,-0.00000050,-0.0000
 0343,0.00000087,-0.00000417,-0.00000169,-0.00000030,-0.00002659,0.0000
 4975,0.00006027,0.00002504,-0.00005240,-0.00002532,0.00001931,-0.00004
 280,-0.00005836,-0.00003046,0.00002735,0.00001395,0.00000297,-0.000004
 15,-0.00000056,-0.00000100,-0.00001286,0.00000294,-0.00000394,0.000008
 97,-0.00000660,0.00116815,-0.00039182,-0.00165002,-0.00033134,0.001406
 93,-0.00012996,0.00075045,0.00052684,-0.00053314,-0.03273690,-0.091258
 50,0.09538064,-0.00793284,-0.01054236,0.02558615,0.00385558,0.00698319
 ,-0.01537080,0.03563760,0.09332006,0.00005607,-0.00000073,0.00001638,-
 0.00000064,0.00000272,-0.00000342,-0.00003101,-0.00003520,0.00003279,-
 0.00000436,0.00000797,-0.00000184,0.00000058,0.00000578,-0.00000272,-0
 .00005061,-0.00002087,-0.00006797,0.00001816,0.00000439,0.00001522,0.0
 0019141,0.00002918,0.00008780,-0.00001775,0.00000143,-0.00000097,-0.00
 037824,0.00013726,0.00009430,-0.00001104,0.00002468,-0.00003178,0.0004
 0280,-0.00037905,-0.00047357,-0.00042545,0.00019741,0.00042389,0.00061
 216,-0.00051990,0.00189841,0.00007452,-0.00005583,-0.00001118,-0.00000
 036,0.00000827,0.00000094,-0.00003334,0.00003639,-0.00002902,-0.000002
 95,-0.00000827,0.00000066,-0.00000262,-0.00000400,0.00000334,-0.000210
 43,0.00006575,-0.00006101,0.00017327,-0.00006132,0.00010879,0.00002931
 ,-0.00000797,0.00006256,0.00001804,0.00003272,-0.00003659,-0.00000006,
 -0.00000666,0.00000535,-0.00000284,-0.00001370,0.00000138,0.00000183,0
 .00000815,0.00000217,0.00791126,0.00897107,-0.02116663,-0.00399466,-0.
 00047519,-0.00128923,0.00026206,-0.00038415,0.00073162,0.06534242,0.09
 444722,-0.24696427,-0.00194553,-0.00263625,0.00557671,0.00190502,0.004
 05455,-0.00845915,-0.06988699,-0.10342587,0.26953704\\-0.00000035,0.00
 000606,-0.00000247,0.00000118,0.00000377,0.00000118,0.00000239,-0.0000
 0454,0.00000403,0.00000126,0.00000115,-0.00000159,-0.00000252,-0.00000
 091,0.00000126,0.00000195,0.00000205,0.00000196,-0.00000060,0.00000223
 ,0.00000263,-0.00000086,0.00001710,-0.00000737,-0.00000098,-0.00000484
 ,0.00000235,-0.00000346,-0.00004121,0.00002164,-0.00000122,0.00000363,
 0.00000227,0.00000108,0.00002675,-0.00000961,-0.00000199,-0.00000795,0
 .00000484,-0.00000810,-0.00000753,0.00000831,0.00000130,-0.00000429,0.
 00000009,-0.00000107,-0.00000491,-0.00000192,-0.00000046,0.00000306,-0
 .00000619,0.00000108,-0.00000145,-0.00000188,-0.00000305,-0.00000169,-
 0.00000063,0.00000210,0.00000689,-0.00000578,0.00000766,-0.00000089,0.
 00000112,0.00000068,-0.00000072,-0.00000328,0.00000119,0.00000300,-0.0
 0000483,0.00000137,0.00000500,-0.00000511,-0.00000009,0.00000169,-0.00
 000610,0.00000144,0.00000220,-0.00000301,-0.00000808,0.00000373,-0.000
 00813,0.00000148,0.00000079,0.00000383,0.00000441,-0.00000072,0.000001
 65,-0.00000392,-0.00000236,-0.00000319,0.00000233,0.00001218,0.0000056
 0,0.00001029,-0.00000872,-0.00000469,-0.00000644,-0.00000857,0.0000130
 2\\\@


 EVANS BOLDLY PUT 50 ATM. OF ETHYLENE IN A CELL WITH 25 ATM. OF OXYGEN.
 THE APPARATUS SUBSEQUENTLY BLEW UP, BUT LUCKILY NOT BEFORE HE
 OBTAINED THE SPECTRA SHOWN IN FIGURE 8.
 A.J.MERER AND R.S.MULLIKEN, CHEM.REV. 69, 645 (1969)
 Job cpu time:       0 days  2 hours  7 minutes 38.4 seconds.
 File lengths (MBytes):  RWF=    453 Int=      0 D2E=      0 Chk=     23 Scr=      1
 Normal termination of Gaussian 09 at Mon Mar 20 18:23:53 2017.
